 written on 21Jul2016 at 17:25:08 
           3
         125
    8    4    4    4    8    4    2    2    2    4    4    2    2    2    4
    4    2    2    2    4    8    4    4    4    8    4    2    2    2    4
    2    1    1    1    2    2    1    1    1    2    2    1    1    1    2
    4    2    2    2    4    4    2    2    2    4    2    1    1    1    2
    2    1    1    1    2    2    1    1    1    2    4    2    2    2    4
    4    2    2    2    4    2    1    1    1    2    2    1    1    1    2
    2    1    1    1    2    4    2    2    2    4    8    4    4    4    8
    4    2    2    2    4    4    2    2    2    4    4    2    2    2    4
    8    4    4    4    8
   -2   -2   -2    1    1   -0.000538   -0.000000
   -2   -2   -2    2    1    0.000000    0.000000
   -2   -2   -2    3    1    0.000000   -0.000000
   -2   -2   -2    1    2    0.000000   -0.000000
   -2   -2   -2    2    2   -0.000538   -0.000000
   -2   -2   -2    3    2    0.000000   -0.000000
   -2   -2   -2    1    3    0.000000    0.000000
   -2   -2   -2    2    3    0.000000    0.000000
   -2   -2   -2    3    3   -0.000538   -0.000000
   -2   -2   -1    1    1   -0.004414    0.000000
   -2   -2   -1    2    1   -0.000000    0.000000
   -2   -2   -1    3    1   -0.000000    0.000000
   -2   -2   -1    1    2   -0.000000    0.000000
   -2   -2   -1    2    2   -0.000213   -0.000000
   -2   -2   -1    3    2    0.000000    0.000000
   -2   -2   -1    1    3   -0.000000    0.000000
   -2   -2   -1    2    3    0.000000    0.000000
   -2   -2   -1    3    3   -0.000213    0.000000
   -2   -2    0    1    1   -0.028904    0.000000
   -2   -2    0    2    1    0.000000    0.000000
   -2   -2    0    3    1    0.000000   -0.000000
   -2   -2    0    1    2    0.000000   -0.000000
   -2   -2    0    2    2    0.000820   -0.000000
   -2   -2    0    3    2   -0.000000   -0.000000
   -2   -2    0    1    3    0.000000    0.000000
   -2   -2    0    2    3   -0.000000    0.000000
   -2   -2    0    3    3    0.000820    0.000000
   -2   -2    1    1    1   -0.004414   -0.000000
   -2   -2    1    2    1   -0.000000   -0.000000
   -2   -2    1    3    1   -0.000000   -0.000000
   -2   -2    1    1    2   -0.000000   -0.000000
   -2   -2    1    2    2   -0.000213    0.000000
   -2   -2    1    3    2    0.000000   -0.000000
   -2   -2    1    1    3   -0.000000   -0.000000
   -2   -2    1    2    3    0.000000   -0.000000
   -2   -2    1    3    3   -0.000213   -0.000000
   -2   -2    2    1    1   -0.000538    0.000000
   -2   -2    2    2    1    0.000000    0.000000
   -2   -2    2    3    1    0.000000   -0.000000
   -2   -2    2    1    2    0.000000   -0.000000
   -2   -2    2    2    2   -0.000538   -0.000000
   -2   -2    2    3    2    0.000000   -0.000000
   -2   -2    2    1    3    0.000000    0.000000
   -2   -2    2    2    3    0.000000    0.000000
   -2   -2    2    3    3   -0.000538   -0.000000
   -2   -1   -2    1    1   -0.000213   -0.000000
   -2   -1   -2    2    1    0.000000   -0.000000
   -2   -1   -2    3    1    0.000000   -0.000000
   -2   -1   -2    1    2    0.000000   -0.000000
   -2   -1   -2    2    2   -0.004414    0.000000
   -2   -1   -2    3    2    0.000000   -0.000000
   -2   -1   -2    1    3    0.000000   -0.000000
   -2   -1   -2    2    3    0.000000   -0.000000
   -2   -1   -2    3    3   -0.000213    0.000000
   -2   -1   -1    1    1   -0.003096   -0.000000
   -2   -1   -1    2    1    0.001699   -0.000000
   -2   -1   -1    3    1   -0.000000   -0.000000
   -2   -1   -1    1    2    0.001699   -0.000000
   -2   -1   -1    2    2   -0.003096    0.000000
   -2   -1   -1    3    2    0.000000   -0.000000
   -2   -1   -1    1    3   -0.000000   -0.000000
   -2   -1   -1    2    3    0.000000   -0.000000
   -2   -1   -1    3    3    0.000033   -0.000000
   -2   -1    0    1    1   -0.025602    0.000000
   -2   -1    0    2    1    0.000000   -0.000000
   -2   -1    0    3    1   -0.000000   -0.000000
   -2   -1    0    1    2    0.000000   -0.000000
   -2   -1    0    2    2    0.005831    0.000000
   -2   -1    0    3    2    0.000000    0.000000
   -2   -1    0    1    3   -0.000000   -0.000000
   -2   -1    0    2    3    0.000000    0.000000
   -2   -1    0    3    3   -0.000147   -0.000000
   -2   -1    1    1    1   -0.003096    0.000000
   -2   -1    1    2    1   -0.001699   -0.000000
   -2   -1    1    3    1   -0.000000   -0.000000
   -2   -1    1    1    2   -0.001699   -0.000000
   -2   -1    1    2    2   -0.003096    0.000000
   -2   -1    1    3    2    0.000000   -0.000000
   -2   -1    1    1    3   -0.000000   -0.000000
   -2   -1    1    2    3    0.000000   -0.000000
   -2   -1    1    3    3    0.000033   -0.000000
   -2   -1    2    1    1   -0.000213   -0.000000
   -2   -1    2    2    1    0.000000   -0.000000
   -2   -1    2    3    1    0.000000   -0.000000
   -2   -1    2    1    2    0.000000   -0.000000
   -2   -1    2    2    2   -0.004414    0.000000
   -2   -1    2    3    2    0.000000   -0.000000
   -2   -1    2    1    3    0.000000   -0.000000
   -2   -1    2    2    3    0.000000   -0.000000
   -2   -1    2    3    3   -0.000213    0.000000
   -2    0   -2    1    1    0.000820    0.000000
   -2    0   -2    2    1   -0.000000    0.000000
   -2    0   -2    3    1   -0.000000   -0.000000
   -2    0   -2    1    2   -0.000000   -0.000000
   -2    0   -2    2    2   -0.028904    0.000000
   -2    0   -2    3    2   -0.000000   -0.000000
   -2    0   -2    1    3   -0.000000    0.000000
   -2    0   -2    2    3   -0.000000    0.000000
   -2    0   -2    3    3    0.000820   -0.000000
   -2    0   -1    1    1    0.005831   -0.000000
   -2    0   -1    2    1   -0.000000    0.000000
   -2    0   -1    3    1    0.000000   -0.000000
   -2    0   -1    1    2   -0.000000    0.000000
   -2    0   -1    2    2   -0.025602    0.000000
   -2    0   -1    3    2    0.000000    0.000000
   -2    0   -1    1    3    0.000000   -0.000000
   -2    0   -1    2    3    0.000000    0.000000
   -2    0   -1    3    3   -0.000147   -0.000000
   -2    0    0    1    1    0.013486    0.000000
   -2    0    0    2    1    0.000000   -0.000000
   -2    0    0    3    1   -0.000000    0.000000
   -2    0    0    1    2    0.000000    0.000000
   -2    0    0    2    2    0.013486    0.000000
   -2    0    0    3    2    0.000000    0.000000
   -2    0    0    1    3   -0.000000   -0.000000
   -2    0    0    2    3    0.000000   -0.000000
   -2    0    0    3    3    0.000049    0.000000
   -2    0    1    1    1    0.005831    0.000000
   -2    0    1    2    1   -0.000000   -0.000000
   -2    0    1    3    1    0.000000    0.000000
   -2    0    1    1    2   -0.000000   -0.000000
   -2    0    1    2    2   -0.025602   -0.000000
   -2    0    1    3    2    0.000000   -0.000000
   -2    0    1    1    3    0.000000    0.000000
   -2    0    1    2    3    0.000000   -0.000000
   -2    0    1    3    3   -0.000147    0.000000
   -2    0    2    1    1    0.000820   -0.000000
   -2    0    2    2    1   -0.000000    0.000000
   -2    0    2    3    1   -0.000000   -0.000000
   -2    0    2    1    2   -0.000000   -0.000000
   -2    0    2    2    2   -0.028904    0.000000
   -2    0    2    3    2   -0.000000   -0.000000
   -2    0    2    1    3   -0.000000    0.000000
   -2    0    2    2    3   -0.000000    0.000000
   -2    0    2    3    3    0.000820   -0.000000
   -2    1   -2    1    1   -0.000213    0.000000
   -2    1   -2    2    1    0.000000    0.000000
   -2    1   -2    3    1    0.000000    0.000000
   -2    1   -2    1    2    0.000000    0.000000
   -2    1   -2    2    2   -0.004414   -0.000000
   -2    1   -2    3    2    0.000000    0.000000
   -2    1   -2    1    3    0.000000    0.000000
   -2    1   -2    2    3    0.000000    0.000000
   -2    1   -2    3    3   -0.000213   -0.000000
   -2    1   -1    1    1   -0.003096   -0.000000
   -2    1   -1    2    1   -0.001699    0.000000
   -2    1   -1    3    1   -0.000000    0.000000
   -2    1   -1    1    2   -0.001699    0.000000
   -2    1   -1    2    2   -0.003096   -0.000000
   -2    1   -1    3    2    0.000000    0.000000
   -2    1   -1    1    3   -0.000000    0.000000
   -2    1   -1    2    3    0.000000    0.000000
   -2    1   -1    3    3    0.000033    0.000000
   -2    1    0    1    1   -0.025602   -0.000000
   -2    1    0    2    1    0.000000    0.000000
   -2    1    0    3    1   -0.000000    0.000000
   -2    1    0    1    2    0.000000    0.000000
   -2    1    0    2    2    0.005831   -0.000000
   -2    1    0    3    2    0.000000   -0.000000
   -2    1    0    1    3   -0.000000    0.000000
   -2    1    0    2    3    0.000000   -0.000000
   -2    1    0    3    3   -0.000147    0.000000
   -2    1    1    1    1   -0.003096    0.000000
   -2    1    1    2    1    0.001699    0.000000
   -2    1    1    3    1   -0.000000    0.000000
   -2    1    1    1    2    0.001699    0.000000
   -2    1    1    2    2   -0.003096   -0.000000
   -2    1    1    3    2    0.000000    0.000000
   -2    1    1    1    3   -0.000000    0.000000
   -2    1    1    2    3    0.000000    0.000000
   -2    1    1    3    3    0.000033    0.000000
   -2    1    2    1    1   -0.000213    0.000000
   -2    1    2    2    1    0.000000    0.000000
   -2    1    2    3    1    0.000000    0.000000
   -2    1    2    1    2    0.000000    0.000000
   -2    1    2    2    2   -0.004414   -0.000000
   -2    1    2    3    2    0.000000    0.000000
   -2    1    2    1    3    0.000000    0.000000
   -2    1    2    2    3    0.000000    0.000000
   -2    1    2    3    3   -0.000213   -0.000000
   -2    2   -2    1    1   -0.000538   -0.000000
   -2    2   -2    2    1    0.000000    0.000000
   -2    2   -2    3    1    0.000000   -0.000000
   -2    2   -2    1    2    0.000000   -0.000000
   -2    2   -2    2    2   -0.000538    0.000000
   -2    2   -2    3    2    0.000000   -0.000000
   -2    2   -2    1    3    0.000000    0.000000
   -2    2   -2    2    3    0.000000    0.000000
   -2    2   -2    3    3   -0.000538   -0.000000
   -2    2   -1    1    1   -0.004414    0.000000
   -2    2   -1    2    1   -0.000000    0.000000
   -2    2   -1    3    1   -0.000000    0.000000
   -2    2   -1    1    2   -0.000000    0.000000
   -2    2   -1    2    2   -0.000213   -0.000000
   -2    2   -1    3    2    0.000000    0.000000
   -2    2   -1    1    3   -0.000000    0.000000
   -2    2   -1    2    3    0.000000    0.000000
   -2    2   -1    3    3   -0.000213    0.000000
   -2    2    0    1    1   -0.028904   -0.000000
   -2    2    0    2    1    0.000000    0.000000
   -2    2    0    3    1    0.000000   -0.000000
   -2    2    0    1    2    0.000000   -0.000000
   -2    2    0    2    2    0.000820   -0.000000
   -2    2    0    3    2   -0.000000   -0.000000
   -2    2    0    1    3    0.000000    0.000000
   -2    2    0    2    3   -0.000000    0.000000
   -2    2    0    3    3    0.000820    0.000000
   -2    2    1    1    1   -0.004414   -0.000000
   -2    2    1    2    1   -0.000000   -0.000000
   -2    2    1    3    1   -0.000000   -0.000000
   -2    2    1    1    2   -0.000000   -0.000000
   -2    2    1    2    2   -0.000213    0.000000
   -2    2    1    3    2    0.000000   -0.000000
   -2    2    1    1    3   -0.000000   -0.000000
   -2    2    1    2    3    0.000000   -0.000000
   -2    2    1    3    3   -0.000213   -0.000000
   -2    2    2    1    1   -0.000538    0.000000
   -2    2    2    2    1    0.000000    0.000000
   -2    2    2    3    1    0.000000   -0.000000
   -2    2    2    1    2    0.000000   -0.000000
   -2    2    2    2    2   -0.000538    0.000000
   -2    2    2    3    2    0.000000   -0.000000
   -2    2    2    1    3    0.000000    0.000000
   -2    2    2    2    3    0.000000    0.000000
   -2    2    2    3    3   -0.000538   -0.000000
   -1   -2   -2    1    1   -0.000213   -0.000000
   -1   -2   -2    2    1    0.000000   -0.000000
   -1   -2   -2    3    1    0.000000    0.000000
   -1   -2   -2    1    2    0.000000   -0.000000
   -1   -2   -2    2    2   -0.000213    0.000000
   -1   -2   -2    3    2   -0.000000   -0.000000
   -1   -2   -2    1    3    0.000000    0.000000
   -1   -2   -2    2    3   -0.000000   -0.000000
   -1   -2   -2    3    3   -0.004414    0.000000
   -1   -2   -1    1    1   -0.003096    0.000000
   -1   -2   -1    2    1   -0.000000    0.000000
   -1   -2   -1    3    1    0.001699    0.000000
   -1   -2   -1    1    2   -0.000000    0.000000
   -1   -2   -1    2    2    0.000033   -0.000000
   -1   -2   -1    3    2   -0.000000   -0.000000
   -1   -2   -1    1    3    0.001699    0.000000
   -1   -2   -1    2    3   -0.000000   -0.000000
   -1   -2   -1    3    3   -0.003096    0.000000
   -1   -2    0    1    1   -0.025602    0.000000
   -1   -2    0    2    1   -0.000000    0.000000
   -1   -2    0    3    1    0.000000    0.000000
   -1   -2    0    1    2   -0.000000    0.000000
   -1   -2    0    2    2   -0.000147   -0.000000
   -1   -2    0    3    2   -0.000000    0.000000
   -1   -2    0    1    3    0.000000    0.000000
   -1   -2    0    2    3   -0.000000    0.000000
   -1   -2    0    3    3    0.005831    0.000000
   -1   -2    1    1    1   -0.003096   -0.000000
   -1   -2    1    2    1   -0.000000    0.000000
   -1   -2    1    3    1   -0.001699   -0.000000
   -1   -2    1    1    2   -0.000000    0.000000
   -1   -2    1    2    2    0.000033    0.000000
   -1   -2    1    3    2   -0.000000   -0.000000
   -1   -2    1    1    3   -0.001699   -0.000000
   -1   -2    1    2    3   -0.000000   -0.000000
   -1   -2    1    3    3   -0.003096    0.000000
   -1   -2    2    1    1   -0.000213   -0.000000
   -1   -2    2    2    1    0.000000   -0.000000
   -1   -2    2    3    1    0.000000    0.000000
   -1   -2    2    1    2    0.000000   -0.000000
   -1   -2    2    2    2   -0.000213    0.000000
   -1   -2    2    3    2   -0.000000   -0.000000
   -1   -2    2    1    3    0.000000    0.000000
   -1   -2    2    2    3   -0.000000   -0.000000
   -1   -2    2    3    3   -0.004414    0.000000
   -1   -1   -2    1    1    0.000033    0.000000
   -1   -1   -2    2    1    0.000000   -0.000000
   -1   -1   -2    3    1    0.000000    0.000000
   -1   -1   -2    1    2    0.000000   -0.000000
   -1   -1   -2    2    2   -0.003096   -0.000000
   -1   -1   -2    3    2    0.001699   -0.000000
   -1   -1   -2    1    3    0.000000    0.000000
   -1   -1   -2    2    3    0.001699   -0.000000
   -1   -1   -2    3    3   -0.003096   -0.000000
   -1   -1   -1    1    1   -0.005639   -0.000000
   -1   -1   -1    2    1    0.003228   -0.000000
   -1   -1   -1    3    1    0.003228    0.000000
   -1   -1   -1    1    2    0.003228   -0.000000
   -1   -1   -1    2    2   -0.005639    0.000000
   -1   -1   -1    3    2    0.003228   -0.000000
   -1   -1   -1    1    3    0.003228    0.000000
   -1   -1   -1    2    3    0.003228   -0.000000
   -1   -1   -1    3    3   -0.005639   -0.000000
   -1   -1    0    1    1   -0.085794   -0.000000
   -1   -1    0    2    1    0.000000   -0.000000
   -1   -1    0    3    1    0.000000    0.000000
   -1   -1    0    1    2    0.000000   -0.000000
   -1   -1    0    2    2    0.006175    0.000000
   -1   -1    0    3    2    0.008941   -0.000000
   -1   -1    0    1    3    0.000000    0.000000
   -1   -1    0    2    3    0.008941   -0.000000
   -1   -1    0    3    3    0.006175    0.000000
   -1   -1    1    1    1   -0.005639    0.000000
   -1   -1    1    2    1   -0.003228   -0.000000
   -1   -1    1    3    1   -0.003228   -0.000000
   -1   -1    1    1    2   -0.003228   -0.000000
   -1   -1    1    2    2   -0.005639   -0.000000
   -1   -1    1    3    2    0.003228   -0.000000
   -1   -1    1    1    3   -0.003228   -0.000000
   -1   -1    1    2    3    0.003228   -0.000000
   -1   -1    1    3    3   -0.005639    0.000000
   -1   -1    2    1    1    0.000033    0.000000
   -1   -1    2    2    1    0.000000   -0.000000
   -1   -1    2    3    1    0.000000    0.000000
   -1   -1    2    1    2    0.000000   -0.000000
   -1   -1    2    2    2   -0.003096   -0.000000
   -1   -1    2    3    2    0.001699   -0.000000
   -1   -1    2    1    3    0.000000    0.000000
   -1   -1    2    2    3    0.001699   -0.000000
   -1   -1    2    3    3   -0.003096   -0.000000
   -1    0   -2    1    1   -0.000147    0.000000
   -1    0   -2    2    1    0.000000   -0.000000
   -1    0   -2    3    1   -0.000000   -0.000000
   -1    0   -2    1    2    0.000000   -0.000000
   -1    0   -2    2    2   -0.025602   -0.000000
   -1    0   -2    3    2   -0.000000   -0.000000
   -1    0   -2    1    3   -0.000000   -0.000000
   -1    0   -2    2    3   -0.000000   -0.000000
   -1    0   -2    3    3    0.005831   -0.000000
   -1    0   -1    1    1    0.006175   -0.000000
   -1    0   -1    2    1   -0.000000    0.000000
   -1    0   -1    3    1    0.008941    0.000000
   -1    0   -1    1    2   -0.000000    0.000000
   -1    0   -1    2    2   -0.085794    0.000000
   -1    0   -1    3    2   -0.000000    0.000000
   -1    0   -1    1    3    0.008941    0.000000
   -1    0   -1    2    3   -0.000000    0.000000
   -1    0   -1    3    3    0.006175   -0.000000
   -1    0    0    1    1   -0.265253   -0.000000
   -1    0    0    2    1   -0.000000   -0.000000
   -1    0    0    3    1   -0.000000   -0.000000
   -1    0    0    1    2   -0.000000   -0.000000
   -1    0    0    2    2   -0.265253    0.000000
   -1    0    0    3    2   -0.000000    0.000000
   -1    0    0    1    3   -0.000000   -0.000000
   -1    0    0    2    3   -0.000000    0.000000
   -1    0    0    3    3   -0.027616   -0.000000
   -1    0    1    1    1    0.006175    0.000000
   -1    0    1    2    1   -0.000000    0.000000
   -1    0    1    3    1   -0.008941   -0.000000
   -1    0    1    1    2   -0.000000    0.000000
   -1    0    1    2    2   -0.085794   -0.000000
   -1    0    1    3    2   -0.000000   -0.000000
   -1    0    1    1    3   -0.008941   -0.000000
   -1    0    1    2    3   -0.000000   -0.000000
   -1    0    1    3    3    0.006175   -0.000000
   -1    0    2    1    1   -0.000147    0.000000
   -1    0    2    2    1    0.000000   -0.000000
   -1    0    2    3    1   -0.000000   -0.000000
   -1    0    2    1    2    0.000000   -0.000000
   -1    0    2    2    2   -0.025602   -0.000000
   -1    0    2    3    2   -0.000000   -0.000000
   -1    0    2    1    3   -0.000000   -0.000000
   -1    0    2    2    3   -0.000000   -0.000000
   -1    0    2    3    3    0.005831   -0.000000
   -1    1   -2    1    1    0.000033   -0.000000
   -1    1   -2    2    1    0.000000   -0.000000
   -1    1   -2    3    1    0.000000   -0.000000
   -1    1   -2    1    2    0.000000   -0.000000
   -1    1   -2    2    2   -0.003096    0.000000
   -1    1   -2    3    2   -0.001699   -0.000000
   -1    1   -2    1    3    0.000000   -0.000000
   -1    1   -2    2    3   -0.001699   -0.000000
   -1    1   -2    3    3   -0.003096   -0.000000
   -1    1   -1    1    1   -0.005639    0.000000
   -1    1   -1    2    1   -0.003228    0.000000
   -1    1   -1    3    1    0.003228    0.000000
   -1    1   -1    1    2   -0.003228    0.000000
   -1    1   -1    2    2   -0.005639   -0.000000
   -1    1   -1    3    2   -0.003228   -0.000000
   -1    1   -1    1    3    0.003228    0.000000
   -1    1   -1    2    3   -0.003228   -0.000000
   -1    1   -1    3    3   -0.005639    0.000000
   -1    1    0    1    1   -0.085794    0.000000
   -1    1    0    2    1    0.000000   -0.000000
   -1    1    0    3    1    0.000000   -0.000000
   -1    1    0    1    2    0.000000   -0.000000
   -1    1    0    2    2    0.006175   -0.000000
   -1    1    0    3    2   -0.008941   -0.000000
   -1    1    0    1    3    0.000000   -0.000000
   -1    1    0    2    3   -0.008941   -0.000000
   -1    1    0    3    3    0.006175    0.000000
   -1    1    1    1    1   -0.005639   -0.000000
   -1    1    1    2    1    0.003228    0.000000
   -1    1    1    3    1   -0.003228   -0.000000
   -1    1    1    1    2    0.003228    0.000000
   -1    1    1    2    2   -0.005639    0.000000
   -1    1    1    3    2   -0.003228   -0.000000
   -1    1    1    1    3   -0.003228   -0.000000
   -1    1    1    2    3   -0.003228   -0.000000
   -1    1    1    3    3   -0.005639   -0.000000
   -1    1    2    1    1    0.000033   -0.000000
   -1    1    2    2    1    0.000000   -0.000000
   -1    1    2    3    1    0.000000   -0.000000
   -1    1    2    1    2    0.000000   -0.000000
   -1    1    2    2    2   -0.003096    0.000000
   -1    1    2    3    2   -0.001699   -0.000000
   -1    1    2    1    3    0.000000   -0.000000
   -1    1    2    2    3   -0.001699   -0.000000
   -1    1    2    3    3   -0.003096   -0.000000
   -1    2   -2    1    1   -0.000213   -0.000000
   -1    2   -2    2    1    0.000000   -0.000000
   -1    2   -2    3    1    0.000000    0.000000
   -1    2   -2    1    2    0.000000   -0.000000
   -1    2   -2    2    2   -0.000213    0.000000
   -1    2   -2    3    2   -0.000000   -0.000000
   -1    2   -2    1    3    0.000000    0.000000
   -1    2   -2    2    3   -0.000000   -0.000000
   -1    2   -2    3    3   -0.004414    0.000000
   -1    2   -1    1    1   -0.003096    0.000000
   -1    2   -1    2    1   -0.000000    0.000000
   -1    2   -1    3    1    0.001699    0.000000
   -1    2   -1    1    2   -0.000000    0.000000
   -1    2   -1    2    2    0.000033   -0.000000
   -1    2   -1    3    2   -0.000000   -0.000000
   -1    2   -1    1    3    0.001699    0.000000
   -1    2   -1    2    3   -0.000000   -0.000000
   -1    2   -1    3    3   -0.003096    0.000000
   -1    2    0    1    1   -0.025602    0.000000
   -1    2    0    2    1   -0.000000    0.000000
   -1    2    0    3    1    0.000000    0.000000
   -1    2    0    1    2   -0.000000    0.000000
   -1    2    0    2    2   -0.000147   -0.000000
   -1    2    0    3    2   -0.000000    0.000000
   -1    2    0    1    3    0.000000    0.000000
   -1    2    0    2    3   -0.000000    0.000000
   -1    2    0    3    3    0.005831    0.000000
   -1    2    1    1    1   -0.003096   -0.000000
   -1    2    1    2    1   -0.000000    0.000000
   -1    2    1    3    1   -0.001699   -0.000000
   -1    2    1    1    2   -0.000000    0.000000
   -1    2    1    2    2    0.000033    0.000000
   -1    2    1    3    2   -0.000000   -0.000000
   -1    2    1    1    3   -0.001699   -0.000000
   -1    2    1    2    3   -0.000000   -0.000000
   -1    2    1    3    3   -0.003096    0.000000
   -1    2    2    1    1   -0.000213   -0.000000
   -1    2    2    2    1    0.000000   -0.000000
   -1    2    2    3    1    0.000000    0.000000
   -1    2    2    1    2    0.000000   -0.000000
   -1    2    2    2    2   -0.000213    0.000000
   -1    2    2    3    2   -0.000000   -0.000000
   -1    2    2    1    3    0.000000    0.000000
   -1    2    2    2    3   -0.000000   -0.000000
   -1    2    2    3    3   -0.004414    0.000000
    0   -2   -2    1    1    0.000820    0.000000
    0   -2   -2    2    1   -0.000000   -0.000000
    0   -2   -2    3    1   -0.000000   -0.000000
    0   -2   -2    1    2   -0.000000    0.000000
    0   -2   -2    2    2    0.000820    0.000000
    0   -2   -2    3    2    0.000000   -0.000000
    0   -2   -2    1    3   -0.000000    0.000000
    0   -2   -2    2    3    0.000000    0.000000
    0   -2   -2    3    3   -0.028904    0.000000
    0   -2   -1    1    1    0.005831    0.000000
    0   -2   -1    2    1   -0.000000   -0.000000
    0   -2   -1    3    1   -0.000000    0.000000
    0   -2   -1    1    2   -0.000000   -0.000000
    0   -2   -1    2    2   -0.000147   -0.000000
    0   -2   -1    3    2   -0.000000   -0.000000
    0   -2   -1    1    3   -0.000000    0.000000
    0   -2   -1    2    3   -0.000000   -0.000000
    0   -2   -1    3    3   -0.025602   -0.000000
    0   -2    0    1    1    0.013486    0.000000
    0   -2    0    2    1   -0.000000   -0.000000
    0   -2    0    3    1    0.000000   -0.000000
    0   -2    0    1    2   -0.000000    0.000000
    0   -2    0    2    2    0.000049    0.000000
    0   -2    0    3    2   -0.000000    0.000000
    0   -2    0    1    3    0.000000    0.000000
    0   -2    0    2    3   -0.000000   -0.000000
    0   -2    0    3    3    0.013486    0.000000
    0   -2    1    1    1    0.005831   -0.000000
    0   -2    1    2    1   -0.000000    0.000000
    0   -2    1    3    1   -0.000000   -0.000000
    0   -2    1    1    2   -0.000000    0.000000
    0   -2    1    2    2   -0.000147    0.000000
    0   -2    1    3    2   -0.000000    0.000000
    0   -2    1    1    3   -0.000000   -0.000000
    0   -2    1    2    3   -0.000000    0.000000
    0   -2    1    3    3   -0.025602    0.000000
    0   -2    2    1    1    0.000820   -0.000000
    0   -2    2    2    1   -0.000000   -0.000000
    0   -2    2    3    1   -0.000000   -0.000000
    0   -2    2    1    2   -0.000000    0.000000
    0   -2    2    2    2    0.000820    0.000000
    0   -2    2    3    2    0.000000   -0.000000
    0   -2    2    1    3   -0.000000    0.000000
    0   -2    2    2    3    0.000000    0.000000
    0   -2    2    3    3   -0.028904   -0.000000
    0   -1   -2    1    1   -0.000147    0.000000
    0   -1   -2    2    1    0.000000    0.000000
    0   -1   -2    3    1    0.000000   -0.000000
    0   -1   -2    1    2    0.000000    0.000000
    0   -1   -2    2    2    0.005831   -0.000000
    0   -1   -2    3    2    0.000000   -0.000000
    0   -1   -2    1    3    0.000000   -0.000000
    0   -1   -2    2    3    0.000000   -0.000000
    0   -1   -2    3    3   -0.025602   -0.000000
    0   -1   -1    1    1    0.006175    0.000000
    0   -1   -1    2    1    0.008941   -0.000000
    0   -1   -1    3    1   -0.000000   -0.000000
    0   -1   -1    1    2    0.008941   -0.000000
    0   -1   -1    2    2    0.006175   -0.000000
    0   -1   -1    3    2    0.000000   -0.000000
    0   -1   -1    1    3   -0.000000   -0.000000
    0   -1   -1    2    3    0.000000   -0.000000
    0   -1   -1    3    3   -0.085794    0.000000
    0   -1    0    1    1   -0.265253   -0.000000
    0   -1    0    2    1    0.000000    0.000000
    0   -1    0    3    1   -0.000000    0.000000
    0   -1    0    1    2    0.000000    0.000000
    0   -1    0    2    2   -0.027616   -0.000000
    0   -1    0    3    2    0.000000    0.000000
    0   -1    0    1    3   -0.000000    0.000000
    0   -1    0    2    3    0.000000    0.000000
    0   -1    0    3    3   -0.265253    0.000000
    0   -1    1    1    1    0.006175   -0.000000
    0   -1    1    2    1   -0.008941   -0.000000
    0   -1    1    3    1   -0.000000   -0.000000
    0   -1    1    1    2   -0.008941   -0.000000
    0   -1    1    2    2    0.006175   -0.000000
    0   -1    1    3    2    0.000000    0.000000
    0   -1    1    1    3   -0.000000   -0.000000
    0   -1    1    2    3    0.000000    0.000000
    0   -1    1    3    3   -0.085794    0.000000
    0   -1    2    1    1   -0.000147    0.000000
    0   -1    2    2    1    0.000000    0.000000
    0   -1    2    3    1    0.000000   -0.000000
    0   -1    2    1    2    0.000000    0.000000
    0   -1    2    2    2    0.005831   -0.000000
    0   -1    2    3    2    0.000000   -0.000000
    0   -1    2    1    3    0.000000   -0.000000
    0   -1    2    2    3    0.000000   -0.000000
    0   -1    2    3    3   -0.025602   -0.000000
    0    0   -2    1    1    0.000049    0.000000
    0    0   -2    2    1    0.000000    0.000000
    0    0   -2    3    1    0.000000   -0.000000
    0    0   -2    1    2    0.000000   -0.000000
    0    0   -2    2    2    0.013486    0.000000
    0    0   -2    3    2    0.000000   -0.000000
    0    0   -2    1    3    0.000000    0.000000
    0    0   -2    2    3    0.000000    0.000000
    0    0   -2    3    3    0.013486   -0.000000
    0    0   -1    1    1   -0.027616   -0.000000
    0    0   -1    2    1   -0.000000   -0.000000
    0    0   -1    3    1    0.000000   -0.000000
    0    0   -1    1    2   -0.000000   -0.000000
    0    0   -1    2    2   -0.265253    0.000000
    0    0   -1    3    2   -0.000000   -0.000000
    0    0   -1    1    3    0.000000   -0.000000
    0    0   -1    2    3   -0.000000   -0.000000
    0    0   -1    3    3   -0.265253    0.000000
    0    0    0    1    1    0.584324    0.000000
    0    0    0    2    1   -0.000000    0.000000
    0    0    0    3    1   -0.000000   -0.000000
    0    0    0    1    2   -0.000000   -0.000000
    0    0    0    2    2    0.584324    0.000000
    0    0    0    3    2   -0.000000   -0.000000
    0    0    0    1    3   -0.000000    0.000000
    0    0    0    2    3   -0.000000    0.000000
    0    0    0    3    3    0.584324   -0.000000
    0    0    1    1    1   -0.027616    0.000000
    0    0    1    2    1   -0.000000    0.000000
    0    0    1    3    1    0.000000    0.000000
    0    0    1    1    2   -0.000000    0.000000
    0    0    1    2    2   -0.265253   -0.000000
    0    0    1    3    2   -0.000000    0.000000
    0    0    1    1    3    0.000000    0.000000
    0    0    1    2    3   -0.000000    0.000000
    0    0    1    3    3   -0.265253   -0.000000
    0    0    2    1    1    0.000049   -0.000000
    0    0    2    2    1    0.000000    0.000000
    0    0    2    3    1    0.000000   -0.000000
    0    0    2    1    2    0.000000   -0.000000
    0    0    2    2    2    0.013486    0.000000
    0    0    2    3    2    0.000000   -0.000000
    0    0    2    1    3    0.000000    0.000000
    0    0    2    2    3    0.000000    0.000000
    0    0    2    3    3    0.013486   -0.000000
    0    1   -2    1    1   -0.000147   -0.000000
    0    1   -2    2    1    0.000000   -0.000000
    0    1   -2    3    1    0.000000    0.000000
    0    1   -2    1    2    0.000000   -0.000000
    0    1   -2    2    2    0.005831    0.000000
    0    1   -2    3    2    0.000000    0.000000
    0    1   -2    1    3    0.000000    0.000000
    0    1   -2    2    3    0.000000    0.000000
    0    1   -2    3    3   -0.025602    0.000000
    0    1   -1    1    1    0.006175    0.000000
    0    1   -1    2    1   -0.008941    0.000000
    0    1   -1    3    1   -0.000000    0.000000
    0    1   -1    1    2   -0.008941    0.000000
    0    1   -1    2    2    0.006175    0.000000
    0    1   -1    3    2    0.000000   -0.000000
    0    1   -1    1    3   -0.000000    0.000000
    0    1   -1    2    3    0.000000   -0.000000
    0    1   -1    3    3   -0.085794   -0.000000
    0    1    0    1    1   -0.265253    0.000000
    0    1    0    2    1    0.000000   -0.000000
    0    1    0    3    1   -0.000000   -0.000000
    0    1    0    1    2    0.000000   -0.000000
    0    1    0    2    2   -0.027616    0.000000
    0    1    0    3    2    0.000000   -0.000000
    0    1    0    1    3   -0.000000   -0.000000
    0    1    0    2    3    0.000000   -0.000000
    0    1    0    3    3   -0.265253   -0.000000
    0    1    1    1    1    0.006175   -0.000000
    0    1    1    2    1    0.008941    0.000000
    0    1    1    3    1   -0.000000    0.000000
    0    1    1    1    2    0.008941    0.000000
    0    1    1    2    2    0.006175    0.000000
    0    1    1    3    2    0.000000    0.000000
    0    1    1    1    3   -0.000000    0.000000
    0    1    1    2    3    0.000000    0.000000
    0    1    1    3    3   -0.085794   -0.000000
    0    1    2    1    1   -0.000147   -0.000000
    0    1    2    2    1    0.000000   -0.000000
    0    1    2    3    1    0.000000    0.000000
    0    1    2    1    2    0.000000   -0.000000
    0    1    2    2    2    0.005831    0.000000
    0    1    2    3    2    0.000000    0.000000
    0    1    2    1    3    0.000000    0.000000
    0    1    2    2    3    0.000000    0.000000
    0    1    2    3    3   -0.025602    0.000000
    0    2   -2    1    1    0.000820    0.000000
    0    2   -2    2    1   -0.000000   -0.000000
    0    2   -2    3    1   -0.000000   -0.000000
    0    2   -2    1    2   -0.000000    0.000000
    0    2   -2    2    2    0.000820   -0.000000
    0    2   -2    3    2    0.000000   -0.000000
    0    2   -2    1    3   -0.000000    0.000000
    0    2   -2    2    3    0.000000    0.000000
    0    2   -2    3    3   -0.028904   -0.000000
    0    2   -1    1    1    0.005831    0.000000
    0    2   -1    2    1   -0.000000   -0.000000
    0    2   -1    3    1   -0.000000    0.000000
    0    2   -1    1    2   -0.000000   -0.000000
    0    2   -1    2    2   -0.000147   -0.000000
    0    2   -1    3    2   -0.000000   -0.000000
    0    2   -1    1    3   -0.000000    0.000000
    0    2   -1    2    3   -0.000000   -0.000000
    0    2   -1    3    3   -0.025602   -0.000000
    0    2    0    1    1    0.013486   -0.000000
    0    2    0    2    1   -0.000000   -0.000000
    0    2    0    3    1    0.000000   -0.000000
    0    2    0    1    2   -0.000000    0.000000
    0    2    0    2    2    0.000049   -0.000000
    0    2    0    3    2   -0.000000    0.000000
    0    2    0    1    3    0.000000    0.000000
    0    2    0    2    3   -0.000000   -0.000000
    0    2    0    3    3    0.013486    0.000000
    0    2    1    1    1    0.005831   -0.000000
    0    2    1    2    1   -0.000000    0.000000
    0    2    1    3    1   -0.000000   -0.000000
    0    2    1    1    2   -0.000000    0.000000
    0    2    1    2    2   -0.000147    0.000000
    0    2    1    3    2   -0.000000    0.000000
    0    2    1    1    3   -0.000000   -0.000000
    0    2    1    2    3   -0.000000    0.000000
    0    2    1    3    3   -0.025602    0.000000
    0    2    2    1    1    0.000820   -0.000000
    0    2    2    2    1   -0.000000   -0.000000
    0    2    2    3    1   -0.000000   -0.000000
    0    2    2    1    2   -0.000000    0.000000
    0    2    2    2    2    0.000820   -0.000000
    0    2    2    3    2    0.000000   -0.000000
    0    2    2    1    3   -0.000000    0.000000
    0    2    2    2    3    0.000000    0.000000
    0    2    2    3    3   -0.028904   -0.000000
    1   -2   -2    1    1   -0.000213    0.000000
    1   -2   -2    2    1    0.000000    0.000000
    1   -2   -2    3    1    0.000000   -0.000000
    1   -2   -2    1    2    0.000000    0.000000
    1   -2   -2    2    2   -0.000213   -0.000000
    1   -2   -2    3    2   -0.000000    0.000000
    1   -2   -2    1    3    0.000000   -0.000000
    1   -2   -2    2    3   -0.000000    0.000000
    1   -2   -2    3    3   -0.004414   -0.000000
    1   -2   -1    1    1   -0.003096    0.000000
    1   -2   -1    2    1   -0.000000   -0.000000
    1   -2   -1    3    1   -0.001699    0.000000
    1   -2   -1    1    2   -0.000000   -0.000000
    1   -2   -1    2    2    0.000033   -0.000000
    1   -2   -1    3    2   -0.000000    0.000000
    1   -2   -1    1    3   -0.001699    0.000000
    1   -2   -1    2    3   -0.000000    0.000000
    1   -2   -1    3    3   -0.003096   -0.000000
    1   -2    0    1    1   -0.025602   -0.000000
    1   -2    0    2    1   -0.000000   -0.000000
    1   -2    0    3    1    0.000000   -0.000000
    1   -2    0    1    2   -0.000000   -0.000000
    1   -2    0    2    2   -0.000147    0.000000
    1   -2    0    3    2   -0.000000   -0.000000
    1   -2    0    1    3    0.000000   -0.000000
    1   -2    0    2    3   -0.000000   -0.000000
    1   -2    0    3    3    0.005831   -0.000000
    1   -2    1    1    1   -0.003096   -0.000000
    1   -2    1    2    1   -0.000000   -0.000000
    1   -2    1    3    1    0.001699   -0.000000
    1   -2    1    1    2   -0.000000   -0.000000
    1   -2    1    2    2    0.000033    0.000000
    1   -2    1    3    2   -0.000000    0.000000
    1   -2    1    1    3    0.001699   -0.000000
    1   -2    1    2    3   -0.000000    0.000000
    1   -2    1    3    3   -0.003096   -0.000000
    1   -2    2    1    1   -0.000213    0.000000
    1   -2    2    2    1    0.000000    0.000000
    1   -2    2    3    1    0.000000   -0.000000
    1   -2    2    1    2    0.000000    0.000000
    1   -2    2    2    2   -0.000213   -0.000000
    1   -2    2    3    2   -0.000000    0.000000
    1   -2    2    1    3    0.000000   -0.000000
    1   -2    2    2    3   -0.000000    0.000000
    1   -2    2    3    3   -0.004414   -0.000000
    1   -1   -2    1    1    0.000033    0.000000
    1   -1   -2    2    1    0.000000    0.000000
    1   -1   -2    3    1    0.000000    0.000000
    1   -1   -2    1    2    0.000000    0.000000
    1   -1   -2    2    2   -0.003096   -0.000000
    1   -1   -2    3    2   -0.001699    0.000000
    1   -1   -2    1    3    0.000000    0.000000
    1   -1   -2    2    3   -0.001699    0.000000
    1   -1   -2    3    3   -0.003096    0.000000
    1   -1   -1    1    1   -0.005639    0.000000
    1   -1   -1    2    1    0.003228   -0.000000
    1   -1   -1    3    1   -0.003228    0.000000
    1   -1   -1    1    2    0.003228   -0.000000
    1   -1   -1    2    2   -0.005639   -0.000000
    1   -1   -1    3    2   -0.003228    0.000000
    1   -1   -1    1    3   -0.003228    0.000000
    1   -1   -1    2    3   -0.003228    0.000000
    1   -1   -1    3    3   -0.005639    0.000000
    1   -1    0    1    1   -0.085794   -0.000000
    1   -1    0    2    1    0.000000    0.000000
    1   -1    0    3    1    0.000000    0.000000
    1   -1    0    1    2    0.000000    0.000000
    1   -1    0    2    2    0.006175    0.000000
    1   -1    0    3    2   -0.008941    0.000000
    1   -1    0    1    3    0.000000    0.000000
    1   -1    0    2    3   -0.008941    0.000000
    1   -1    0    3    3    0.006175   -0.000000
    1   -1    1    1    1   -0.005639   -0.000000
    1   -1    1    2    1   -0.003228   -0.000000
    1   -1    1    3    1    0.003228   -0.000000
    1   -1    1    1    2   -0.003228   -0.000000
    1   -1    1    2    2   -0.005639    0.000000
    1   -1    1    3    2   -0.003228    0.000000
    1   -1    1    1    3    0.003228   -0.000000
    1   -1    1    2    3   -0.003228    0.000000
    1   -1    1    3    3   -0.005639   -0.000000
    1   -1    2    1    1    0.000033    0.000000
    1   -1    2    2    1    0.000000    0.000000
    1   -1    2    3    1    0.000000    0.000000
    1   -1    2    1    2    0.000000    0.000000
    1   -1    2    2    2   -0.003096   -0.000000
    1   -1    2    3    2   -0.001699    0.000000
    1   -1    2    1    3    0.000000    0.000000
    1   -1    2    2    3   -0.001699    0.000000
    1   -1    2    3    3   -0.003096    0.000000
    1    0   -2    1    1   -0.000147   -0.000000
    1    0   -2    2    1    0.000000    0.000000
    1    0   -2    3    1   -0.000000    0.000000
    1    0   -2    1    2    0.000000    0.000000
    1    0   -2    2    2   -0.025602    0.000000
    1    0   -2    3    2   -0.000000    0.000000
    1    0   -2    1    3   -0.000000    0.000000
    1    0   -2    2    3   -0.000000    0.000000
    1    0   -2    3    3    0.005831    0.000000
    1    0   -1    1    1    0.006175   -0.000000
    1    0   -1    2    1   -0.000000   -0.000000
    1    0   -1    3    1   -0.008941    0.000000
    1    0   -1    1    2   -0.000000   -0.000000
    1    0   -1    2    2   -0.085794    0.000000
    1    0   -1    3    2   -0.000000    0.000000
    1    0   -1    1    3   -0.008941    0.000000
    1    0   -1    2    3   -0.000000    0.000000
    1    0   -1    3    3    0.006175    0.000000
    1    0    0    1    1   -0.265253    0.000000
    1    0    0    2    1   -0.000000    0.000000
    1    0    0    3    1   -0.000000    0.000000
    1    0    0    1    2   -0.000000    0.000000
    1    0    0    2    2   -0.265253   -0.000000
    1    0    0    3    2   -0.000000   -0.000000
    1    0    0    1    3   -0.000000    0.000000
    1    0    0    2    3   -0.000000   -0.000000
    1    0    0    3    3   -0.027616    0.000000
    1    0    1    1    1    0.006175    0.000000
    1    0    1    2    1   -0.000000   -0.000000
    1    0    1    3    1    0.008941   -0.000000
    1    0    1    1    2   -0.000000   -0.000000
    1    0    1    2    2   -0.085794   -0.000000
    1    0    1    3    2   -0.000000   -0.000000
    1    0    1    1    3    0.008941   -0.000000
    1    0    1    2    3   -0.000000   -0.000000
    1    0    1    3    3    0.006175    0.000000
    1    0    2    1    1   -0.000147   -0.000000
    1    0    2    2    1    0.000000    0.000000
    1    0    2    3    1   -0.000000    0.000000
    1    0    2    1    2    0.000000    0.000000
    1    0    2    2    2   -0.025602    0.000000
    1    0    2    3    2   -0.000000    0.000000
    1    0    2    1    3   -0.000000    0.000000
    1    0    2    2    3   -0.000000    0.000000
    1    0    2    3    3    0.005831    0.000000
    1    1   -2    1    1    0.000033   -0.000000
    1    1   -2    2    1    0.000000    0.000000
    1    1   -2    3    1    0.000000   -0.000000
    1    1   -2    1    2    0.000000    0.000000
    1    1   -2    2    2   -0.003096    0.000000
    1    1   -2    3    2    0.001699    0.000000
    1    1   -2    1    3    0.000000   -0.000000
    1    1   -2    2    3    0.001699    0.000000
    1    1   -2    3    3   -0.003096    0.000000
    1    1   -1    1    1   -0.005639   -0.000000
    1    1   -1    2    1   -0.003228    0.000000
    1    1   -1    3    1   -0.003228    0.000000
    1    1   -1    1    2   -0.003228    0.000000
    1    1   -1    2    2   -0.005639    0.000000
    1    1   -1    3    2    0.003228    0.000000
    1    1   -1    1    3   -0.003228    0.000000
    1    1   -1    2    3    0.003228    0.000000
    1    1   -1    3    3   -0.005639   -0.000000
    1    1    0    1    1   -0.085794    0.000000
    1    1    0    2    1    0.000000    0.000000
    1    1    0    3    1    0.000000   -0.000000
    1    1    0    1    2    0.000000    0.000000
    1    1    0    2    2    0.006175   -0.000000
    1    1    0    3    2    0.008941    0.000000
    1    1    0    1    3    0.000000   -0.000000
    1    1    0    2    3    0.008941    0.000000
    1    1    0    3    3    0.006175   -0.000000
    1    1    1    1    1   -0.005639    0.000000
    1    1    1    2    1    0.003228    0.000000
    1    1    1    3    1    0.003228   -0.000000
    1    1    1    1    2    0.003228    0.000000
    1    1    1    2    2   -0.005639   -0.000000
    1    1    1    3    2    0.003228    0.000000
    1    1    1    1    3    0.003228   -0.000000
    1    1    1    2    3    0.003228    0.000000
    1    1    1    3    3   -0.005639    0.000000
    1    1    2    1    1    0.000033   -0.000000
    1    1    2    2    1    0.000000    0.000000
    1    1    2    3    1    0.000000   -0.000000
    1    1    2    1    2    0.000000    0.000000
    1    1    2    2    2   -0.003096    0.000000
    1    1    2    3    2    0.001699    0.000000
    1    1    2    1    3    0.000000   -0.000000
    1    1    2    2    3    0.001699    0.000000
    1    1    2    3    3   -0.003096    0.000000
    1    2   -2    1    1   -0.000213    0.000000
    1    2   -2    2    1    0.000000    0.000000
    1    2   -2    3    1    0.000000   -0.000000
    1    2   -2    1    2    0.000000    0.000000
    1    2   -2    2    2   -0.000213   -0.000000
    1    2   -2    3    2   -0.000000    0.000000
    1    2   -2    1    3    0.000000   -0.000000
    1    2   -2    2    3   -0.000000    0.000000
    1    2   -2    3    3   -0.004414   -0.000000
    1    2   -1    1    1   -0.003096    0.000000
    1    2   -1    2    1   -0.000000   -0.000000
    1    2   -1    3    1   -0.001699    0.000000
    1    2   -1    1    2   -0.000000   -0.000000
    1    2   -1    2    2    0.000033   -0.000000
    1    2   -1    3    2   -0.000000    0.000000
    1    2   -1    1    3   -0.001699    0.000000
    1    2   -1    2    3   -0.000000    0.000000
    1    2   -1    3    3   -0.003096   -0.000000
    1    2    0    1    1   -0.025602   -0.000000
    1    2    0    2    1   -0.000000   -0.000000
    1    2    0    3    1    0.000000   -0.000000
    1    2    0    1    2   -0.000000   -0.000000
    1    2    0    2    2   -0.000147    0.000000
    1    2    0    3    2   -0.000000   -0.000000
    1    2    0    1    3    0.000000   -0.000000
    1    2    0    2    3   -0.000000   -0.000000
    1    2    0    3    3    0.005831   -0.000000
    1    2    1    1    1   -0.003096   -0.000000
    1    2    1    2    1   -0.000000   -0.000000
    1    2    1    3    1    0.001699   -0.000000
    1    2    1    1    2   -0.000000   -0.000000
    1    2    1    2    2    0.000033    0.000000
    1    2    1    3    2   -0.000000    0.000000
    1    2    1    1    3    0.001699   -0.000000
    1    2    1    2    3   -0.000000    0.000000
    1    2    1    3    3   -0.003096   -0.000000
    1    2    2    1    1   -0.000213    0.000000
    1    2    2    2    1    0.000000    0.000000
    1    2    2    3    1    0.000000   -0.000000
    1    2    2    1    2    0.000000    0.000000
    1    2    2    2    2   -0.000213   -0.000000
    1    2    2    3    2   -0.000000    0.000000
    1    2    2    1    3    0.000000   -0.000000
    1    2    2    2    3   -0.000000    0.000000
    1    2    2    3    3   -0.004414   -0.000000
    2   -2   -2    1    1   -0.000538   -0.000000
    2   -2   -2    2    1    0.000000    0.000000
    2   -2   -2    3    1    0.000000   -0.000000
    2   -2   -2    1    2    0.000000   -0.000000
    2   -2   -2    2    2   -0.000538   -0.000000
    2   -2   -2    3    2    0.000000   -0.000000
    2   -2   -2    1    3    0.000000    0.000000
    2   -2   -2    2    3    0.000000    0.000000
    2   -2   -2    3    3   -0.000538    0.000000
    2   -2   -1    1    1   -0.004414    0.000000
    2   -2   -1    2    1   -0.000000    0.000000
    2   -2   -1    3    1   -0.000000    0.000000
    2   -2   -1    1    2   -0.000000    0.000000
    2   -2   -1    2    2   -0.000213   -0.000000
    2   -2   -1    3    2    0.000000    0.000000
    2   -2   -1    1    3   -0.000000    0.000000
    2   -2   -1    2    3    0.000000    0.000000
    2   -2   -1    3    3   -0.000213    0.000000
    2   -2    0    1    1   -0.028904   -0.000000
    2   -2    0    2    1    0.000000    0.000000
    2   -2    0    3    1    0.000000   -0.000000
    2   -2    0    1    2    0.000000   -0.000000
    2   -2    0    2    2    0.000820    0.000000
    2   -2    0    3    2   -0.000000   -0.000000
    2   -2    0    1    3    0.000000    0.000000
    2   -2    0    2    3   -0.000000    0.000000
    2   -2    0    3    3    0.000820   -0.000000
    2   -2    1    1    1   -0.004414   -0.000000
    2   -2    1    2    1   -0.000000   -0.000000
    2   -2    1    3    1   -0.000000   -0.000000
    2   -2    1    1    2   -0.000000   -0.000000
    2   -2    1    2    2   -0.000213    0.000000
    2   -2    1    3    2    0.000000   -0.000000
    2   -2    1    1    3   -0.000000   -0.000000
    2   -2    1    2    3    0.000000   -0.000000
    2   -2    1    3    3   -0.000213   -0.000000
    2   -2    2    1    1   -0.000538    0.000000
    2   -2    2    2    1    0.000000    0.000000
    2   -2    2    3    1    0.000000   -0.000000
    2   -2    2    1    2    0.000000   -0.000000
    2   -2    2    2    2   -0.000538   -0.000000
    2   -2    2    3    2    0.000000   -0.000000
    2   -2    2    1    3    0.000000    0.000000
    2   -2    2    2    3    0.000000    0.000000
    2   -2    2    3    3   -0.000538    0.000000
    2   -1   -2    1    1   -0.000213   -0.000000
    2   -1   -2    2    1    0.000000   -0.000000
    2   -1   -2    3    1    0.000000   -0.000000
    2   -1   -2    1    2    0.000000   -0.000000
    2   -1   -2    2    2   -0.004414    0.000000
    2   -1   -2    3    2    0.000000   -0.000000
    2   -1   -2    1    3    0.000000   -0.000000
    2   -1   -2    2    3    0.000000   -0.000000
    2   -1   -2    3    3   -0.000213    0.000000
    2   -1   -1    1    1   -0.003096   -0.000000
    2   -1   -1    2    1    0.001699   -0.000000
    2   -1   -1    3    1   -0.000000   -0.000000
    2   -1   -1    1    2    0.001699   -0.000000
    2   -1   -1    2    2   -0.003096    0.000000
    2   -1   -1    3    2    0.000000   -0.000000
    2   -1   -1    1    3   -0.000000   -0.000000
    2   -1   -1    2    3    0.000000   -0.000000
    2   -1   -1    3    3    0.000033   -0.000000
    2   -1    0    1    1   -0.025602    0.000000
    2   -1    0    2    1    0.000000   -0.000000
    2   -1    0    3    1   -0.000000   -0.000000
    2   -1    0    1    2    0.000000   -0.000000
    2   -1    0    2    2    0.005831    0.000000
    2   -1    0    3    2    0.000000    0.000000
    2   -1    0    1    3   -0.000000   -0.000000
    2   -1    0    2    3    0.000000    0.000000
    2   -1    0    3    3   -0.000147   -0.000000
    2   -1    1    1    1   -0.003096    0.000000
    2   -1    1    2    1   -0.001699   -0.000000
    2   -1    1    3    1   -0.000000   -0.000000
    2   -1    1    1    2   -0.001699   -0.000000
    2   -1    1    2    2   -0.003096    0.000000
    2   -1    1    3    2    0.000000   -0.000000
    2   -1    1    1    3   -0.000000   -0.000000
    2   -1    1    2    3    0.000000   -0.000000
    2   -1    1    3    3    0.000033   -0.000000
    2   -1    2    1    1   -0.000213   -0.000000
    2   -1    2    2    1    0.000000   -0.000000
    2   -1    2    3    1    0.000000   -0.000000
    2   -1    2    1    2    0.000000   -0.000000
    2   -1    2    2    2   -0.004414    0.000000
    2   -1    2    3    2    0.000000   -0.000000
    2   -1    2    1    3    0.000000   -0.000000
    2   -1    2    2    3    0.000000   -0.000000
    2   -1    2    3    3   -0.000213    0.000000
    2    0   -2    1    1    0.000820    0.000000
    2    0   -2    2    1   -0.000000    0.000000
    2    0   -2    3    1   -0.000000   -0.000000
    2    0   -2    1    2   -0.000000   -0.000000
    2    0   -2    2    2   -0.028904    0.000000
    2    0   -2    3    2   -0.000000   -0.000000
    2    0   -2    1    3   -0.000000    0.000000
    2    0   -2    2    3   -0.000000    0.000000
    2    0   -2    3    3    0.000820   -0.000000
    2    0   -1    1    1    0.005831   -0.000000
    2    0   -1    2    1   -0.000000    0.000000
    2    0   -1    3    1    0.000000   -0.000000
    2    0   -1    1    2   -0.000000    0.000000
    2    0   -1    2    2   -0.025602    0.000000
    2    0   -1    3    2    0.000000    0.000000
    2    0   -1    1    3    0.000000   -0.000000
    2    0   -1    2    3    0.000000    0.000000
    2    0   -1    3    3   -0.000147   -0.000000
    2    0    0    1    1    0.013486    0.000000
    2    0    0    2    1    0.000000   -0.000000
    2    0    0    3    1   -0.000000    0.000000
    2    0    0    1    2    0.000000    0.000000
    2    0    0    2    2    0.013486   -0.000000
    2    0    0    3    2    0.000000    0.000000
    2    0    0    1    3   -0.000000   -0.000000
    2    0    0    2    3    0.000000   -0.000000
    2    0    0    3    3    0.000049   -0.000000
    2    0    1    1    1    0.005831    0.000000
    2    0    1    2    1   -0.000000   -0.000000
    2    0    1    3    1    0.000000    0.000000
    2    0    1    1    2   -0.000000   -0.000000
    2    0    1    2    2   -0.025602   -0.000000
    2    0    1    3    2    0.000000   -0.000000
    2    0    1    1    3    0.000000    0.000000
    2    0    1    2    3    0.000000   -0.000000
    2    0    1    3    3   -0.000147    0.000000
    2    0    2    1    1    0.000820   -0.000000
    2    0    2    2    1   -0.000000    0.000000
    2    0    2    3    1   -0.000000   -0.000000
    2    0    2    1    2   -0.000000   -0.000000
    2    0    2    2    2   -0.028904   -0.000000
    2    0    2    3    2   -0.000000   -0.000000
    2    0    2    1    3   -0.000000    0.000000
    2    0    2    2    3   -0.000000    0.000000
    2    0    2    3    3    0.000820   -0.000000
    2    1   -2    1    1   -0.000213    0.000000
    2    1   -2    2    1    0.000000    0.000000
    2    1   -2    3    1    0.000000    0.000000
    2    1   -2    1    2    0.000000    0.000000
    2    1   -2    2    2   -0.004414   -0.000000
    2    1   -2    3    2    0.000000    0.000000
    2    1   -2    1    3    0.000000    0.000000
    2    1   -2    2    3    0.000000    0.000000
    2    1   -2    3    3   -0.000213   -0.000000
    2    1   -1    1    1   -0.003096   -0.000000
    2    1   -1    2    1   -0.001699    0.000000
    2    1   -1    3    1   -0.000000    0.000000
    2    1   -1    1    2   -0.001699    0.000000
    2    1   -1    2    2   -0.003096   -0.000000
    2    1   -1    3    2    0.000000    0.000000
    2    1   -1    1    3   -0.000000    0.000000
    2    1   -1    2    3    0.000000    0.000000
    2    1   -1    3    3    0.000033    0.000000
    2    1    0    1    1   -0.025602   -0.000000
    2    1    0    2    1    0.000000    0.000000
    2    1    0    3    1   -0.000000    0.000000
    2    1    0    1    2    0.000000    0.000000
    2    1    0    2    2    0.005831   -0.000000
    2    1    0    3    2    0.000000   -0.000000
    2    1    0    1    3   -0.000000    0.000000
    2    1    0    2    3    0.000000   -0.000000
    2    1    0    3    3   -0.000147    0.000000
    2    1    1    1    1   -0.003096    0.000000
    2    1    1    2    1    0.001699    0.000000
    2    1    1    3    1   -0.000000    0.000000
    2    1    1    1    2    0.001699    0.000000
    2    1    1    2    2   -0.003096   -0.000000
    2    1    1    3    2    0.000000    0.000000
    2    1    1    1    3   -0.000000    0.000000
    2    1    1    2    3    0.000000    0.000000
    2    1    1    3    3    0.000033    0.000000
    2    1    2    1    1   -0.000213    0.000000
    2    1    2    2    1    0.000000    0.000000
    2    1    2    3    1    0.000000    0.000000
    2    1    2    1    2    0.000000    0.000000
    2    1    2    2    2   -0.004414   -0.000000
    2    1    2    3    2    0.000000    0.000000
    2    1    2    1    3    0.000000    0.000000
    2    1    2    2    3    0.000000    0.000000
    2    1    2    3    3   -0.000213   -0.000000
    2    2   -2    1    1   -0.000538   -0.000000
    2    2   -2    2    1    0.000000    0.000000
    2    2   -2    3    1    0.000000   -0.000000
    2    2   -2    1    2    0.000000   -0.000000
    2    2   -2    2    2   -0.000538    0.000000
    2    2   -2    3    2    0.000000   -0.000000
    2    2   -2    1    3    0.000000    0.000000
    2    2   -2    2    3    0.000000    0.000000
    2    2   -2    3    3   -0.000538    0.000000
    2    2   -1    1    1   -0.004414    0.000000
    2    2   -1    2    1   -0.000000    0.000000
    2    2   -1    3    1   -0.000000    0.000000
    2    2   -1    1    2   -0.000000    0.000000
    2    2   -1    2    2   -0.000213   -0.000000
    2    2   -1    3    2    0.000000    0.000000
    2    2   -1    1    3   -0.000000    0.000000
    2    2   -1    2    3    0.000000    0.000000
    2    2   -1    3    3   -0.000213    0.000000
    2    2    0    1    1   -0.028904   -0.000000
    2    2    0    2    1    0.000000    0.000000
    2    2    0    3    1    0.000000   -0.000000
    2    2    0    1    2    0.000000   -0.000000
    2    2    0    2    2    0.000820   -0.000000
    2    2    0    3    2   -0.000000   -0.000000
    2    2    0    1    3    0.000000    0.000000
    2    2    0    2    3   -0.000000    0.000000
    2    2    0    3    3    0.000820    0.000000
    2    2    1    1    1   -0.004414   -0.000000
    2    2    1    2    1   -0.000000   -0.000000
    2    2    1    3    1   -0.000000   -0.000000
    2    2    1    1    2   -0.000000   -0.000000
    2    2    1    2    2   -0.000213    0.000000
    2    2    1    3    2    0.000000   -0.000000
    2    2    1    1    3   -0.000000   -0.000000
    2    2    1    2    3    0.000000   -0.000000
    2    2    1    3    3   -0.000213   -0.000000
    2    2    2    1    1   -0.000538    0.000000
    2    2    2    2    1    0.000000    0.000000
    2    2    2    3    1    0.000000   -0.000000
    2    2    2    1    2    0.000000   -0.000000
    2    2    2    2    2   -0.000538    0.000000
    2    2    2    3    2    0.000000   -0.000000
    2    2    2    1    3    0.000000    0.000000
    2    2    2    2    3    0.000000    0.000000
    2    2    2    3    3   -0.000538    0.000000
