 
             +---------------------------------------------------+
             |                                                   |
             |                   WANNIER90                       |
             |                                                   |
             +---------------------------------------------------+
             |                                                   |
             |        Welcome to the Maximally-Localized         |
             |        Generalized Wannier Functions code         |
             |            http://www.wannier.org                 |
             |                                                   |
             |  Wannier90 v2.0 Authors:                          |
             |    Arash A. Mostofi  (Imperial College London)    |
             |    Giovanni Pizzi    (EPFL)                       |
             |    Ivo Souza         (Universidad del Pais Vasco) |
             |    Jonathan R. Yates (University of Oxford)       |
             |                                                   |
             |  Wannier90 Contributors:                          |
             |    Young-Su Lee       (KIST, S. Korea)            |
             |    Matthew Shelley    (Imperial College London)   |
             |    Nicolas Poilvert   (Penn State University)     |
             |    Raffaello Bianco   (Paris 6 and CNRS)          |
             |    Gabriele Sclauzero (ETH Zurich)                |
             |                                                   |
             |  Wannier77 Authors:                               |
             |    Nicola Marzari    (EPFL)                       |
             |    Ivo Souza         (Universidad del Pais Vasco) |
             |    David Vanderbilt  (Rutgers University)         |
             |                                                   |
             |  Please cite                                      |
             |                                                   |
             |  [ref] "Wannier90: A Tool for Obtaining Maximally |
             |         Localised Wannier Functions"              |
             |        A. A. Mostofi, J. R. Yates, Y.-S. Lee,     |
             |        I. Souza, D. Vanderbilt and N. Marzari     |
             |        Comput. Phys. Commun. 178, 685 (2008)      |
             |                                                   |
             |  in any publications arising from the use of      |
             |  this code. For the method please cite            |
             |                                                   |
             |  [ref] "Maximally Localized Generalised Wannier   |
             |         Functions for Composite Energy Bands"     |
             |         N. Marzari and D. Vanderbilt              |
             |         Phys. Rev. B 56 12847 (1997)              |
             |                                                   |
             |  [ref] "Maximally Localized Wannier Functions     |
             |         for Entangled Energy Bands"               |
             |         I. Souza, N. Marzari and D. Vanderbilt    |
             |         Phys. Rev. B 65 035109 (2001)             |
             |                                                   |
             |                                                   |
             | Copyright (c) 1996-2015                           |
             |        Arash A. Mostofi, Jonathan R. Yates,       |
             |        Young-Su Lee, Giovanni Pizzi, Ivo Souza,   |
             |        David Vanderbilt and Nicola Marzari        |
             |                                                   |
             |        Release: 2.0.1   2nd April 2015            |
             |                                                   |
             | This program is free software; you can            |
             | redistribute it and/or modify it under the terms  |
             | of the GNU General Public License as published by |
             | the Free Software Foundation; either version 2 of |
             | the License, or (at your option) any later version|
             |                                                   |
             | This program is distributed in the hope that it   |
             | will be useful, but WITHOUT ANY WARRANTY; without |
             | even the implied warranty of MERCHANTABILITY or   |
             | FITNESS FOR A PARTICULAR PURPOSE. See the GNU     |
             | General Public License for more details.          |
             |                                                   |
             | You should have received a copy of the GNU General|
             | Public License along with this program; if not,   |
             | write to the Free Software Foundation, Inc.,      |
             | 675 Mass Ave, Cambridge, MA 02139, USA.           |
             |                                                   |
             +---------------------------------------------------+
             |    Execution started on 21Jul2016 at 17:25:08     |
             +---------------------------------------------------+
 
 ******************************************************************************
 * -> Using CODATA 2006 constant values                                       *
 *    (http://physics.nist.gov/cuu/Constants/index.html)                      *
 * -> Using Bohr value from CODATA                                            *
 ******************************************************************************
 
 
                                    ------
                                    SYSTEM
                                    ------
 
                              Lattice Vectors (Ang)
                    a_1     3.842514   0.000000   0.000000
                    a_2     0.000000   3.842514   0.000000
                    a_3     0.000000   0.000000   3.842514
 
                   Unit Cell Volume:      56.73441  (Ang^3)
 
                        Reciprocal-Space Vectors (Ang^-1)
                    b_1     1.635175   0.000000   0.000000
                    b_2     0.000000   1.635175   0.000000
                    b_3     0.000000   0.000000   1.635175
  
 *----------------------------------------------------------------------------*
 |   Site       Fractional Coordinate          Cartesian Coordinate (Ang)     |
 +----------------------------------------------------------------------------+
 | 1    1   0.00000   0.00000   0.00000   |    0.00000   0.00000   0.00000    |
 | 2    1   0.50000   0.50000   0.50000   |    1.92126   1.92126   1.92126    |
 | 3    1   0.00000   0.50000   0.50000   |    0.00000   1.92126   1.92126    |
 | 4    1   0.50000   0.00000   0.50000   |    1.92126   0.00000   1.92126    |
 | 5    1   0.50000   0.50000   0.00000   |    1.92126   1.92126   0.00000    |
 *----------------------------------------------------------------------------*
  
                                ------------
                                K-POINT GRID
                                ------------
  
             Grid size =  4 x  4 x  4      Total points =   64
  
  
 *---------------------------------- MAIN ------------------------------------*
 |  Number of Wannier Functions               :                 3             |
 |  Number of input Bloch states              :                 3             |
 |  Output verbosity (1=low, 5=high)          :                 1             |
 |  Timing Level (1=low, 5=high)              :                 1             |
 |  Optimisation (0=memory, 3=speed)          :                 3             |
 |  Length Unit                               :               Ang             |
 |  Post-processing setup (write *.nnkp)      :                 F             |
 |  Using Gamma-only branch of algorithms     :                 F             |
 *----------------------------------------------------------------------------*
 *------------------------------- WANNIERISE ---------------------------------*
 |  Total number of iterations                :             10000             |
 |  Number of CG steps before reset           :                 5             |
 |  Trial step length for line search         :             2.000             |
 |  Convergence tolerence                     :         0.100E-09             |
 |  Convergence window                        :                 3             |
 |  Iterations between writing output         :               100             |
 |  Iterations between backing up to disk     :               100             |
 |  Write r^2_nm to file                      :                 F             |
 |  Write xyz WF centres to file              :                 T             |
 |  Write on-site energies <0n|H|0n> to file  :                 F             |
 |  Use guiding centre to control phases      :                 T             |
 |  Use phases for initial projections        :                 F             |
 |  Iterations before starting guiding centres:                 0             |
 |  Iterations between using guiding centres  :                 1             |
 *----------------------------------------------------------------------------*
 *-------------------------------- PLOTTING ----------------------------------*
 |  Plotting Hamiltonian in WF basis          :                 T             |
 *----------------------------------------------------------------------------*
 Time to read parameters        0.004 (sec)

 *---------------------------------- K-MESH ----------------------------------*
 +----------------------------------------------------------------------------+
 |                    Distance to Nearest-Neighbour Shells                    |
 |                    ------------------------------------                    |
 |          Shell             Distance (Ang^-1)          Multiplicity         |
 |          -----             -----------------          ------------         |
 |             1                   0.408794                      6            |
 |             2                   0.578122                     12            |
 |             3                   0.708052                      8            |
 |             4                   0.817588                      6            |
 |             5                   0.914091                     24            |
 |             6                   1.001336                     24            |
 |             7                   1.156244                     12            |
 |             8                   1.226382                     30            |
 |             9                   1.292720                     24            |
 |            10                   1.355816                     24            |
 |            11                   1.416103                      8            |
 |            12                   1.473927                     24            |
 +----------------------------------------------------------------------------+
 | The b-vectors are chosen automatically                                     |
 | The following shells are used:   1                                         |
 +----------------------------------------------------------------------------+
 |                        Shell   # Nearest-Neighbours                        |
 |                        -----   --------------------                        |
 |                          1               6                                 |
 +----------------------------------------------------------------------------+
 | Completeness relation is fully satisfied [Eq. (B1), PRB 56, 12847 (1997)]  |
 +----------------------------------------------------------------------------+
 |                  b_k Vectors (Ang^-1) and Weights (Ang^2)                  |
 |                  ----------------------------------------                  |
 |            No.         b_k(x)      b_k(y)      b_k(z)        w_b           |
 |            ---        --------------------------------     --------        |
 |             1         0.000000    0.000000    0.408794     2.991998        |
 |             2         0.000000    0.408794    0.000000     2.991998        |
 |             3         0.408794    0.000000    0.000000     2.991998        |
 |             4         0.000000    0.000000   -0.408794     2.991998        |
 |             5         0.000000   -0.408794    0.000000     2.991998        |
 |             6        -0.408794    0.000000    0.000000     2.991998        |
 +----------------------------------------------------------------------------+
 |                           b_k Directions (Ang^-1)                          |
 |                           -----------------------                          |
 |            No.           x           y           z                         |
 |            ---        --------------------------------                     |
 |             1         0.000000    0.000000    0.408794                     |
 |             2         0.000000    0.408794    0.000000                     |
 |             3         0.408794    0.000000    0.000000                     |
 +----------------------------------------------------------------------------+
  
 *============================================================================*
 |                              MEMORY ESTIMATE                               |
 |         Maximum RAM allocated during each phase of the calculation         |
 *============================================================================*
 |                            Wannierise:            0.21 Mb                  |
 *----------------------------------------------------------------------------*
  
 Starting a new Wannier90 calculation ...

 Time to get kmesh              0.016 (sec)

 Reading overlaps from SrVO3-mmn-amn.mmn    : SrVO3

 Reading projections from SrVO3-mmn-amn.amn : SrVO3

 Time to read overlaps          0.003 (sec)

 Writing checkpoint file SrVO3-mmn-amn.chk... done

 
 *------------------------------- WANNIERISE ---------------------------------*
 +--------------------------------------------------------------------+<-- CONV
 | Iter  Delta Spread     RMS Gradient      Spread (Ang^2)      Time  |<-- CONV
 +--------------------------------------------------------------------+<-- CONV
 
 ------------------------------------------------------------------------------
 Initial State
  WF centre and spread    1  (  1.921257,  1.921257,  1.921257 )     1.65158609
  WF centre and spread    2  (  1.921257,  1.921257,  1.921257 )     1.65158608
  WF centre and spread    3  (  1.921257,  1.921257,  1.921257 )     1.65158609
  Sum of centres and spreads (  5.763772,  5.763772,  5.763772 )     4.95475826
 
      0     0.495E+01     0.0000000000        4.9547582617       0.03  <-- CONV
        O_D=      0.0000000 O_OD=      0.0042413 O_TOT=      4.9547583 <-- SPRD
 ------------------------------------------------------------------------------
 Cycle:      1
  WF centre and spread    1  (  1.921257,  1.921257,  1.921257 )     1.65158609
  WF centre and spread    2  (  1.921257,  1.921257,  1.921257 )     1.65158608
  WF centre and spread    3  (  1.921257,  1.921257,  1.921257 )     1.65158609
  Sum of centres and spreads (  5.763772,  5.763772,  5.763772 )     4.95475826
 
      1    -0.419E-09     0.0000320335        4.9547582613       0.03  <-- CONV
        O_D=      0.0000000 O_OD=      0.0042413 O_TOT=      4.9547583 <-- SPRD
 Delta: O_D= -0.7629389E-30 O_OD= -0.4190522E-09 O_TOT= -0.4190523E-09 <-- DLTA
 ------------------------------------------------------------------------------

             <<<     Delta < 1.000E-10  over  3 iterations     >>>
             <<< Wannierisation convergence criteria satisfied >>>

 Final State
  WF centre and spread    1  (  1.921257,  1.921257,  1.921257 )     1.65158609
  WF centre and spread    2  (  1.921257,  1.921257,  1.921257 )     1.65158609
  WF centre and spread    3  (  1.921257,  1.921257,  1.921257 )     1.65158609
  Sum of centres and spreads (  5.763772,  5.763772,  5.763772 )     4.95475826
 
         Spreads (Ang^2)       Omega I      =     4.950516986
        ================       Omega D      =     0.000000000
                               Omega OD     =     0.004241275
    Final Spread (Ang^2)       Omega Total  =     4.954758261
 ------------------------------------------------------------------------------

 Wannier centres written to file SrVO3-mmn-amn_centres.xyz
 Time for wannierise            0.005 (sec)

 Writing checkpoint file SrVO3-mmn-amn.chk... done

 *---------------------------------------------------------------------------*
 |                               PLOTTING                                    |
 *---------------------------------------------------------------------------*
 
 Time for plotting              0.009 (sec)
 Total Execution Time           0.041 (sec)

 *===========================================================================*
 |                             TIMING INFORMATION                            |
 *===========================================================================*
 |    Tag                                                Ncalls      Time (s)|
 |---------------------------------------------------------------------------|
 |kmesh: get                                        :         1         0.016|
 |overlap: read                                     :         1         0.003|
 |wann: main                                        :         1         0.005|
 |plot: main                                        :         1         0.009|
 *---------------------------------------------------------------------------*
 
 All done: wannier90 exiting
