W2W v1.0.0-123-gf296f82

 selected Wannier :    1
Read Wannier90 ‘chk’ file written on 21Jul2016 at 17:25:08

SrVO3                                    s-o calc. M||  0.00  0.00  1.00

 P    LATTIC WITH     3 INEQUIV. ATOMS/UC USING RELA. AUGMENTATION

 LATTIC CONSTANTS:   7.2613000   7.2613000   7.2613000 (in bohr)
 UNIT CELL ANGLES:  90.0000000  90.0000000  90.0000000 (in degree)

 REAL SPACE LATTICE VECTORS a1, a2, a3 (in bohr)
 -----------------------------------------------
 CONVENTIONAL UNIT CELL :
 a1     =    7.2613000   0.0000000   0.0000000
 a2     =    0.0000000   7.2613000   0.0000000
 a3     =    0.0000000   0.0000000   7.2613000

 PRIMITIVE UNIT CELL :
 a1     =    7.2613000   0.0000000   0.0000000
 a2     =    0.0000000   7.2613000   0.0000000
 a3     =    0.0000000   0.0000000   7.2613000

 RECIPROCAL LATTIC VECTORS b1, b2, b3 (in 1/bohr)
 ------------------------------------------------
 CONVENTIONAL UNIT CELL :
 b1/2pi =    0.1377164   0.0000000   0.0000000
 b2/2pi =   -0.0000000   0.1377164   0.0000000
 b3/2pi =   -0.0000000  -0.0000000   0.1377164

 PRIMITIVE UNIT CELL :
 b1/2pi =    0.1377164   0.0000000   0.0000000
 b2/2pi =   -0.0000000   0.1377164   0.0000000
 b3/2pi =   -0.0000000  -0.0000000   0.1377164

 SYMMETRY OPERATIONS
 -------------------
 y = {Q|t}(x) : y_i = Sum(j) Q_ij x_j + t_i
 with y_i and x_j in conventional fractional coordinates

 symm    Q(:,1)  Q(:,2)  Q(:,3)    t(:)
    1       1       0       0      0.00000
            0       1       0      0.00000
            0       0       1      0.00000

    2      -1       0       0      0.00000
            0      -1       0      0.00000
            0       0       1      0.00000

    3      -1       0       0      0.00000
            0       1       0      0.00000
            0       0      -1      0.00000

    4       1       0       0      0.00000
            0      -1       0      0.00000
            0       0      -1      0.00000

    5       0       0       1      0.00000
            1       0       0      0.00000
            0       1       0      0.00000

    6       0       0       1      0.00000
           -1       0       0      0.00000
            0      -1       0      0.00000

    7       0       0      -1      0.00000
           -1       0       0      0.00000
            0       1       0      0.00000

    8       0       0      -1      0.00000
            1       0       0      0.00000
            0      -1       0      0.00000

    9       0       1       0      0.00000
            0       0       1      0.00000
            1       0       0      0.00000

   10       0      -1       0      0.00000
            0       0       1      0.00000
           -1       0       0      0.00000

   11       0       1       0      0.00000
            0       0      -1      0.00000
           -1       0       0      0.00000

   12       0      -1       0      0.00000
            0       0      -1      0.00000
            1       0       0      0.00000

   13       0       1       0      0.00000
            1       0       0      0.00000
            0       0      -1      0.00000

   14       0      -1       0      0.00000
           -1       0       0      0.00000
            0       0      -1      0.00000

   15       0       1       0      0.00000
           -1       0       0      0.00000
            0       0       1      0.00000

   16       0      -1       0      0.00000
            1       0       0      0.00000
            0       0       1      0.00000

   17       1       0       0      0.00000
            0       0       1      0.00000
            0      -1       0      0.00000

   18      -1       0       0      0.00000
            0       0       1      0.00000
            0       1       0      0.00000

   19      -1       0       0      0.00000
            0       0      -1      0.00000
            0      -1       0      0.00000

   20       1       0       0      0.00000
            0       0      -1      0.00000
            0       1       0      0.00000

   21       0       0       1      0.00000
            0       1       0      0.00000
           -1       0       0      0.00000

   22       0       0       1      0.00000
            0      -1       0      0.00000
            1       0       0      0.00000

   23       0       0      -1      0.00000
            0       1       0      0.00000
            1       0       0      0.00000

   24       0       0      -1      0.00000
            0      -1       0      0.00000
           -1       0       0      0.00000

   25      -1       0       0      0.00000
            0      -1       0      0.00000
            0       0      -1      0.00000

   26       1       0       0      0.00000
            0       1       0      0.00000
            0       0      -1      0.00000

   27       1       0       0      0.00000
            0      -1       0      0.00000
            0       0       1      0.00000

   28      -1       0       0      0.00000
            0       1       0      0.00000
            0       0       1      0.00000

   29       0       0      -1      0.00000
           -1       0       0      0.00000
            0      -1       0      0.00000

   30       0       0      -1      0.00000
            1       0       0      0.00000
            0       1       0      0.00000

   31       0       0       1      0.00000
            1       0       0      0.00000
            0      -1       0      0.00000

   32       0       0       1      0.00000
           -1       0       0      0.00000
            0       1       0      0.00000

   33       0      -1       0      0.00000
            0       0      -1      0.00000
           -1       0       0      0.00000

   34       0       1       0      0.00000
            0       0      -1      0.00000
            1       0       0      0.00000

   35       0      -1       0      0.00000
            0       0       1      0.00000
            1       0       0      0.00000

   36       0       1       0      0.00000
            0       0       1      0.00000
           -1       0       0      0.00000

   37       0      -1       0      0.00000
           -1       0       0      0.00000
            0       0       1      0.00000

   38       0       1       0      0.00000
            1       0       0      0.00000
            0       0       1      0.00000

   39       0      -1       0      0.00000
            1       0       0      0.00000
            0       0      -1      0.00000

   40       0       1       0      0.00000
           -1       0       0      0.00000
            0       0      -1      0.00000

   41      -1       0       0      0.00000
            0       0      -1      0.00000
            0       1       0      0.00000

   42       1       0       0      0.00000
            0       0      -1      0.00000
            0      -1       0      0.00000

   43       1       0       0      0.00000
            0       0       1      0.00000
            0       1       0      0.00000

   44      -1       0       0      0.00000
            0       0       1      0.00000
            0      -1       0      0.00000

   45       0       0      -1      0.00000
            0      -1       0      0.00000
            1       0       0      0.00000

   46       0       0      -1      0.00000
            0       1       0      0.00000
           -1       0       0      0.00000

   47       0       0       1      0.00000
            0      -1       0      0.00000
           -1       0       0      0.00000

   48       0       0       1      0.00000
            0       1       0      0.00000
            1       0       0      0.00000

 POSITIONS OF THE BASIS ATOMS
 ----------------------------
 x = Sum(j=1,3) f_i a_i  with  f_i in [0,1[  (in the conventional unit cell)

 atom    f_1      f_2      f_3           x [bohr]     y [bohr]     z [bohr]
    1   0.00000  0.00000  0.00000       0.0000000    0.0000000    0.0000000
    2   0.50000  0.50000  0.50000       3.6306500    3.6306500    3.6306500
    3   0.00000  0.50000  0.50000       0.0000000    3.6306500    3.6306500
    3   0.50000  0.00000  0.50000       3.6306500    0.0000000    3.6306500
    3   0.50000  0.50000  0.00000       3.6306500    3.6306500    0.0000000

 SYMMETRY ADJUSTED POSITIONS OF THE BASIS ATOMS
 ----------------------------------------------
 atom  symm.     x [bohr]     y [bohr]     z [bohr]
    1     1     0.0000000    0.0000000    0.0000000
    2     1     3.6306500    3.6306500    3.6306500
    3     1     0.0000000    3.6306500    3.6306500
    3     5     3.6306500    0.0000000    3.6306500
    3     9     3.6306500    3.6306500    0.0000000

 SYMMETRY ADAPTED LOCAL ROTATION MATRICES
 ----------------------------------------
 x' = T^-1(x) : x'_i = Sum(j) x_j T_ji  with x_j and x'_i in Cartesian coord.

 atom  symm.      T(:,1)      T(:,2)      T(:,3)
    1     1     1.000000    0.000000    0.000000
                0.000000    1.000000    0.000000
                0.000000    0.000000    1.000000

    2     1     1.000000    0.000000    0.000000
                0.000000    1.000000    0.000000
                0.000000    0.000000    1.000000

    3     1     0.000000    0.000000    1.000000
                0.000000    1.000000    0.000000
               -1.000000    0.000000    0.000000

    3     5    -1.000000   -0.000000   -0.000000
               -0.000000   -0.000000    1.000000
               -0.000000    1.000000    0.000000

    3     9     0.000000    1.000000   -0.000000
               -1.000000    0.000000   -0.000000
               -0.000000    0.000000    1.000000

 3D-NET OF GRID POINTS
 ---------------------
 number of grid points for x, y, z:   10  10  10 (total:   1000)

 PLOTTING AREA
 -------------
 x = Sum(j=1,3) f_i a_i  with  f_i in conventional fractional coordinates

           f_1      f_2      f_3           x [bohr]     y [bohr]     z [bohr]
 origin   0.00000  0.00000  0.00000       0.0000000    0.0000000    0.0000000
 x-axis   1.00000  0.00000  0.00000       7.2613000    0.0000000    0.0000000
 y-axis   0.00000  1.00000  0.00000       0.0000000    7.2613000    0.0000000
 z-axis   0.00000  0.00000  1.00000       0.0000000    0.0000000    7.2613000

        length [bohr]
 abs(x)     7.2613000
 abs(y)     7.2613000
 abs(z)     7.2613000

          cos(phi)   phi [degree]
 <)(x,y)  0.0000000     90.000
 <)(x,z)  0.0000000     90.000
 <)(y,z)  0.0000000     90.000

 PRIMITIVE CELLS SURROUNDING THE MUFFIN TIN SPHERES
 --------------------------------------------------
 cell = Sum(i=1,3) [-s_i,+s_i] a_i  with  a_i = primitive lattice vector

 atom     RMT         s_1      s_2      s_3
    1   2.50000     0.34429  0.34429  0.34429
    2   1.89000     0.26028  0.26028  0.26028
    3   1.71000     0.23550  0.23550  0.23550

 GRID POINT DISTRIBUTION
 -----------------------
 region  atom  grid points  percentage
      0   int       568       56.8 %
      1    1        232       23.2 %
      2    2         56        5.6 %
      3    3         48        4.8 %
      4    3         48        4.8 %
      5    3         48        4.8 %

 AUGMENTATION FUNCTIONS
 ----------------------
 psi_lm(r) = u_l(|r|) * Y_lm(r/|r|)

 augmentation functions for atom   1 (Rmt= 2.500)

 regular augmentation functions at r = Rmt
  L    E(L)      u(r,E)     u'(r,E)   dE u(r,E)  dE u'(r,E)  <u|dE u>  |dE u|^2
  0   0.429  5.2597E-01  3.2571E-01  1.6400E-02 -2.9404E-01
  1  -0.612  1.7790E-01 -2.2003E-01 -3.6181E-01 -4.5193E-01
  2   0.429 -4.4879E-01 -3.7832E-02  1.6387E-01  3.7035E-01
  3   0.429  6.6030E-01  5.6597E-01 -7.5053E-02 -3.0665E-01
  4   0.429  7.8578E-01  1.0821E+00 -4.5207E-02 -2.6587E-01
  5   0.429  8.7651E-01  1.6058E+00 -3.3195E-02 -2.4335E-01
  6   0.429  9.5368E-01  2.1600E+00 -2.6171E-02 -2.2703E-01
  7   0.429  1.0228E+00  2.7483E+00 -2.1476E-02 -2.1411E-01
  8   0.429  1.0864E+00  3.3710E+00 -1.8101E-02 -2.0341E-01
LO COEFFICIENT: l,A,B,C   0          0.11756    -3.77028     0.00000     0.00000
LO COEFFICIENT: l,A,B,C   0          0.22237     0.00000     0.90171     0.00000
LO COEFFICIENT: l,A,B,C   1          0.97170     0.47778     0.00000     0.00000
LO COEFFICIENT: l,A,B,C   1          0.69935     0.00000     0.37409     0.00000

 augmentation functions for atom   2 (Rmt= 1.890)

 regular augmentation functions at r = Rmt
  L    E(L)      u(r,E)     u'(r,E)   dE u(r,E)  dE u'(r,E)  <u|dE u>  |dE u|^2
  0   0.429 -8.0588E-01 -3.4576E-01  3.3467E-02  3.6174E-01
  1   0.429  6.9824E-01  7.7241E-01  1.0877E-01 -2.8065E-01
  2   0.429  3.6946E-01 -2.7756E-01 -3.3955E-01 -5.0274E-01
  3   0.429  1.0190E+00  1.1494E+00 -6.0449E-02 -3.4292E-01
  4   0.429  1.1972E+00  2.1549E+00 -3.8621E-02 -3.0335E-01
  5   0.429  1.3329E+00  3.1991E+00 -2.8671E-02 -2.7884E-01
  6   0.429  1.4495E+00  4.3096E+00 -2.2693E-02 -2.6059E-01
  7   0.429  1.5544E+00  5.4910E+00 -1.8654E-02 -2.4597E-01
  8   0.429  1.6511E+00  6.7425E+00 -1.5736E-02 -2.3378E-01
LO COEFFICIENT: l,A,B,C   0          0.34068     8.20367     0.00000     0.00000
LO COEFFICIENT: l,A,B,C   0          0.19647     0.00000     0.93904     0.00000
LO COEFFICIENT: l,A,B,C   1          0.52741    -3.38560     0.00000     0.00000
LO COEFFICIENT: l,A,B,C   1          0.26067     0.00000     0.84270     0.00000
LO COEFFICIENT: l,A,B,C   2          0.93934     1.02208     0.00000     0.00000

 augmentation functions for atom   3 (Rmt= 1.710)

 regular augmentation functions at r = Rmt
  L    E(L)      u(r,E)     u'(r,E)   dE u(r,E)  dE u'(r,E)  <u|dE u>  |dE u|^2
  0  -0.697 -3.5431E-01  5.5893E-01  3.0303E-01  4.8718E-01
  1   0.429  3.8264E-01 -4.9215E-01 -3.2613E-01 -4.7435E-01
  2   0.429  1.0665E+00  8.7615E-01 -7.3112E-02 -3.8074E-01
  3   0.429  1.2800E+00  1.9653E+00 -4.5294E-02 -3.3671E-01
  4   0.429  1.4430E+00  3.1414E+00 -3.2816E-02 -3.0842E-01
  5   0.429  1.5833E+00  4.4247E+00 -2.5474E-02 -2.8716E-01
  6   0.429  1.7096E+00  5.8142E+00 -2.0611E-02 -2.7010E-01
  7   0.429  1.8258E+00  7.3051E+00 -1.7159E-02 -2.5591E-01
  8   0.429  1.9343E+00  8.8925E+00 -1.4591E-02 -2.4382E-01
LO COEFFICIENT: l,A,B,C   0          0.96025     1.12273     0.00000     0.00000
LO COEFFICIENT: l,A,B,C   0          0.30930     0.00000     0.71060     0.00000
LO COEFFICIENT: l,A,B,C   1          0.94916     1.11362     0.00000     0.00000

 WAVE FUNCTION OPTIONS
 ---------------------
 evaluation of the LARGE relativistic component of the wave functions
 data provided    :  NO (PSI)  [in ANG units]

 ==================
 WAVE FUNCTION DATA
 ==================
 order: (((psi(ix,iy,iz),ix=1,nx),iy=1,ny),iz=1,nz)

 k-point   1 :          1 = (  0.0000,  0.0000,  0.0000)
 -------------------------------------------------------
 k-point   2 :          2 = (  0.0000,  0.0000,  0.2500)
 -------------------------------------------------------
 k-point   3 :          3 = (  0.0000,  0.0000,  0.5000)
 -------------------------------------------------------
 k-point   4 :          4 = (  0.0000,  0.0000,  0.7500)
 -------------------------------------------------------
 k-point   5 :          5 = (  0.0000,  0.2500,  0.0000)
 -------------------------------------------------------
 k-point   6 :          6 = (  0.0000,  0.2500,  0.2500)
 -------------------------------------------------------
 k-point   7 :          7 = (  0.0000,  0.2500,  0.5000)
 -------------------------------------------------------
 k-point   8 :          8 = (  0.0000,  0.2500,  0.7500)
 -------------------------------------------------------
 k-point   9 :          9 = (  0.0000,  0.5000,  0.0000)
 -------------------------------------------------------
 k-point  10 :         10 = (  0.0000,  0.5000,  0.2500)
 -------------------------------------------------------
 k-point  11 :         11 = (  0.0000,  0.5000,  0.5000)
 -------------------------------------------------------
 k-point  12 :         12 = (  0.0000,  0.5000,  0.7500)
 -------------------------------------------------------
 k-point  13 :         13 = (  0.0000,  0.7500,  0.0000)
 -------------------------------------------------------
 k-point  14 :         14 = (  0.0000,  0.7500,  0.2500)
 -------------------------------------------------------
 k-point  15 :         15 = (  0.0000,  0.7500,  0.5000)
 -------------------------------------------------------
 k-point  16 :         16 = (  0.0000,  0.7500,  0.7500)
 -------------------------------------------------------
 k-point  17 :         17 = (  0.2500,  0.0000,  0.0000)
 -------------------------------------------------------
 k-point  18 :         18 = (  0.2500,  0.0000,  0.2500)
 -------------------------------------------------------
 k-point  19 :         19 = (  0.2500,  0.0000,  0.5000)
 -------------------------------------------------------
 k-point  20 :         20 = (  0.2500,  0.0000,  0.7500)
 -------------------------------------------------------
 k-point  21 :         21 = (  0.2500,  0.2500,  0.0000)
 -------------------------------------------------------
 k-point  22 :         22 = (  0.2500,  0.2500,  0.2500)
 -------------------------------------------------------
 k-point  23 :         23 = (  0.2500,  0.2500,  0.5000)
 -------------------------------------------------------
 k-point  24 :         24 = (  0.2500,  0.2500,  0.7500)
 -------------------------------------------------------
 k-point  25 :         25 = (  0.2500,  0.5000,  0.0000)
 -------------------------------------------------------
 k-point  26 :         26 = (  0.2500,  0.5000,  0.2500)
 -------------------------------------------------------
 k-point  27 :         27 = (  0.2500,  0.5000,  0.5000)
 -------------------------------------------------------
 k-point  28 :         28 = (  0.2500,  0.5000,  0.7500)
 -------------------------------------------------------
 k-point  29 :         29 = (  0.2500,  0.7500,  0.0000)
 -------------------------------------------------------
 k-point  30 :         30 = (  0.2500,  0.7500,  0.2500)
 -------------------------------------------------------
 k-point  31 :         31 = (  0.2500,  0.7500,  0.5000)
 -------------------------------------------------------
 k-point  32 :         32 = (  0.2500,  0.7500,  0.7500)
 -------------------------------------------------------
 k-point  33 :         33 = (  0.5000,  0.0000,  0.0000)
 -------------------------------------------------------
 k-point  34 :         34 = (  0.5000,  0.0000,  0.2500)
 -------------------------------------------------------
 k-point  35 :         35 = (  0.5000,  0.0000,  0.5000)
 -------------------------------------------------------
 k-point  36 :         36 = (  0.5000,  0.0000,  0.7500)
 -------------------------------------------------------
 k-point  37 :         37 = (  0.5000,  0.2500,  0.0000)
 -------------------------------------------------------
 k-point  38 :         38 = (  0.5000,  0.2500,  0.2500)
 -------------------------------------------------------
 k-point  39 :         39 = (  0.5000,  0.2500,  0.5000)
 -------------------------------------------------------
 k-point  40 :         40 = (  0.5000,  0.2500,  0.7500)
 -------------------------------------------------------
 k-point  41 :         41 = (  0.5000,  0.5000,  0.0000)
 -------------------------------------------------------
 k-point  42 :         42 = (  0.5000,  0.5000,  0.2500)
 -------------------------------------------------------
 k-point  43 :         43 = (  0.5000,  0.5000,  0.5000)
 -------------------------------------------------------
 k-point  44 :         44 = (  0.5000,  0.5000,  0.7500)
 -------------------------------------------------------
 k-point  45 :         45 = (  0.5000,  0.7500,  0.0000)
 -------------------------------------------------------
 k-point  46 :         46 = (  0.5000,  0.7500,  0.2500)
 -------------------------------------------------------
 k-point  47 :         47 = (  0.5000,  0.7500,  0.5000)
 -------------------------------------------------------
 k-point  48 :         48 = (  0.5000,  0.7500,  0.7500)
 -------------------------------------------------------
 k-point  49 :         49 = (  0.7500,  0.0000,  0.0000)
 -------------------------------------------------------
 k-point  50 :         50 = (  0.7500,  0.0000,  0.2500)
 -------------------------------------------------------
 k-point  51 :         51 = (  0.7500,  0.0000,  0.5000)
 -------------------------------------------------------
 k-point  52 :         52 = (  0.7500,  0.0000,  0.7500)
 -------------------------------------------------------
 k-point  53 :         53 = (  0.7500,  0.2500,  0.0000)
 -------------------------------------------------------
 k-point  54 :         54 = (  0.7500,  0.2500,  0.2500)
 -------------------------------------------------------
 k-point  55 :         55 = (  0.7500,  0.2500,  0.5000)
 -------------------------------------------------------
 k-point  56 :         56 = (  0.7500,  0.2500,  0.7500)
 -------------------------------------------------------
 k-point  57 :         57 = (  0.7500,  0.5000,  0.0000)
 -------------------------------------------------------
 k-point  58 :         58 = (  0.7500,  0.5000,  0.2500)
 -------------------------------------------------------
 k-point  59 :         59 = (  0.7500,  0.5000,  0.5000)
 -------------------------------------------------------
 k-point  60 :         60 = (  0.7500,  0.5000,  0.7500)
 -------------------------------------------------------
 k-point  61 :         61 = (  0.7500,  0.7500,  0.0000)
 -------------------------------------------------------
 k-point  62 :         62 = (  0.7500,  0.7500,  0.2500)
 -------------------------------------------------------
 k-point  63 :         63 = (  0.7500,  0.7500,  0.5000)
 -------------------------------------------------------
 k-point  64 :         64 = (  0.7500,  0.7500,  0.7500)
 -------------------------------------------------------
