W2W v1.0.0-137-g91d5b8f

 selected Wannier :    1
Read Wannier90 ‘chk’ file written on 25Jul2016 at 10:57:43

blebleble

 P    LATTIC WITH     4 INEQUIV. ATOMS/UC USING RELA. AUGMENTATION

 LATTIC CONSTANTS:  10.7147510  10.7147510  10.2045250 (in bohr)
 UNIT CELL ANGLES:  90.0000000  90.0000000  90.0000000 (in degree)

 REAL SPACE LATTICE VECTORS a1, a2, a3 (in bohr)
 -----------------------------------------------
 CONVENTIONAL UNIT CELL :
 a1     =   10.7147510   0.0000000   0.0000000
 a2     =    0.0000000  10.7147510   0.0000000
 a3     =    0.0000000   0.0000000  10.2045250

 PRIMITIVE UNIT CELL :
 a1     =   10.7147510   0.0000000   0.0000000
 a2     =    0.0000000  10.7147510   0.0000000
 a3     =    0.0000000   0.0000000  10.2045250

 RECIPROCAL LATTIC VECTORS b1, b2, b3 (in 1/bohr)
 ------------------------------------------------
 CONVENTIONAL UNIT CELL :
 b1/2pi =    0.0933293   0.0000000   0.0000000
 b2/2pi =   -0.0000000   0.0933293   0.0000000
 b3/2pi =   -0.0000000  -0.0000000   0.0979957

 PRIMITIVE UNIT CELL :
 b1/2pi =    0.0933293   0.0000000   0.0000000
 b2/2pi =   -0.0000000   0.0933293   0.0000000
 b3/2pi =   -0.0000000  -0.0000000   0.0979957

 SYMMETRY OPERATIONS
 -------------------
 y = {Q|t}(x) : y_i = Sum(j) Q_ij x_j + t_i
 with y_i and x_j in conventional fractional coordinates

 symm    Q(:,1)  Q(:,2)  Q(:,3)    t(:)
    1       1       0       0      0.00000
            0       1       0      0.00000
            0       0       1      0.00000

    2      -1       0       0      0.00000
            0      -1       0      0.00000
            0       0       1      0.00000

    3       0      -1       0      0.00000
            1       0       0      0.00000
            0       0       1      0.00000

    4       0       1       0      0.00000
           -1       0       0      0.00000
            0       0       1      0.00000

    5      -1       0       0      0.00000
            0       1       0      0.00000
            0       0      -1      0.00000

    6       1       0       0      0.00000
            0      -1       0      0.00000
            0       0      -1      0.00000

    7       0       1       0      0.00000
            1       0       0      0.00000
            0       0      -1      0.00000

    8       0      -1       0      0.00000
           -1       0       0      0.00000
            0       0      -1      0.00000

    9      -1       0       0      0.00000
            0      -1       0      0.00000
            0       0      -1      0.00000

   10       1       0       0      0.00000
            0       1       0      0.00000
            0       0      -1      0.00000

   11       0       1       0      0.00000
           -1       0       0      0.00000
            0       0      -1      0.00000

   12       0      -1       0      0.00000
            1       0       0      0.00000
            0       0      -1      0.00000

   13       1       0       0      0.00000
            0      -1       0      0.00000
            0       0       1      0.00000

   14      -1       0       0      0.00000
            0       1       0      0.00000
            0       0       1      0.00000

   15       0      -1       0      0.00000
           -1       0       0      0.00000
            0       0       1      0.00000

   16       0       1       0      0.00000
            1       0       0      0.00000
            0       0       1      0.00000

 POSITIONS OF THE BASIS ATOMS
 ----------------------------
 x = Sum(j=1,3) f_i a_i  with  f_i in [0,1[  (in the conventional unit cell)

 atom    f_1      f_2      f_3           x [bohr]     y [bohr]     z [bohr]
    1   0.00000  0.00000  0.00000       0.0000000    0.0000000    0.0000000
    2   0.50000  0.50000  0.50000       5.3573755    5.3573755    5.1022625
    3   0.00000  0.50000  0.50000       0.0000000    5.3573755    5.1022625
    3   0.50000  0.00000  0.50000       5.3573755    0.0000000    5.1022625
    4   0.50000  0.50000  0.00000       5.3573755    5.3573755    0.0000000

 SYMMETRY ADJUSTED POSITIONS OF THE BASIS ATOMS
 ----------------------------------------------
 atom  symm.     x [bohr]     y [bohr]     z [bohr]
    1     1     0.0000000    0.0000000    0.0000000
    2     1     5.3573755    5.3573755    5.1022625
    3     1     0.0000000    5.3573755    5.1022625
    3     3    -5.3573755   -0.0000000    5.1022625
    4     1     5.3573755    5.3573755    0.0000000

 SYMMETRY ADAPTED LOCAL ROTATION MATRICES
 ----------------------------------------
 x' = T^-1(x) : x'_i = Sum(j) x_j T_ji  with x_j and x'_i in Cartesian coord.

 atom  symm.      T(:,1)      T(:,2)      T(:,3)
    1     1     1.000000    0.000000    0.000000
                0.000000    1.000000    0.000000
                0.000000   -0.000000    1.000000

    2     1     1.000000    0.000000    0.000000
                0.000000    1.000000    0.000000
                0.000000   -0.000000    1.000000

    3     1     1.000000    0.000000    0.000000
                0.000000    1.000000    0.000000
                0.000000   -0.000000    1.000000

    3     3     0.000000   -1.000000    0.000000
                1.000000   -0.000000    0.000000
                0.000000   -0.000000    1.000000

    4     1     1.000000    0.000000    0.000000
                0.000000    1.000000    0.000000
                0.000000   -0.000000    1.000000

 3D-NET OF GRID POINTS
 ---------------------
 number of grid points for x, y, z:   10  10  10 (total:   1000)

 PLOTTING AREA
 -------------
 x = Sum(j=1,3) f_i a_i  with  f_i in conventional fractional coordinates

           f_1      f_2      f_3           x [bohr]     y [bohr]     z [bohr]
 origin   0.00000  0.00000  0.00000       0.0000000    0.0000000    0.0000000
 x-axis   1.00000  0.00000  0.00000      10.7147510    0.0000000    0.0000000
 y-axis   0.00000  1.00000  0.00000       0.0000000   10.7147510    0.0000000
 z-axis   0.00000  0.00000  1.00000       0.0000000    0.0000000   10.2045250

        length [bohr]
 abs(x)    10.7147510
 abs(y)    10.7147510
 abs(z)    10.2045250

          cos(phi)   phi [degree]
 <)(x,y)  0.0000000     90.000
 <)(x,z)  0.0000000     90.000
 <)(y,z)  0.0000000     90.000

 PRIMITIVE CELLS SURROUNDING THE MUFFIN TIN SPHERES
 --------------------------------------------------
 cell = Sum(i=1,3) [-s_i,+s_i] a_i  with  a_i = primitive lattice vector

 atom     RMT         s_1      s_2      s_3
    1   2.50000     0.23332  0.23332  0.24499
    2   2.41000     0.22492  0.22492  0.23617
    3   2.50000     0.23332  0.23332  0.24499
    4   2.50000     0.23332  0.23332  0.24499

 GRID POINT DISTRIBUTION
 -----------------------
 region  atom  grid points  percentage
      0   int       712       71.2 %
      1    1         88        8.8 %
      2    2         32        3.2 %
      3    3         56        5.6 %
      4    3         56        5.6 %
      5    4         56        5.6 %

 AUGMENTATION FUNCTIONS
 ----------------------
 psi_lm(r) = u_l(|r|) * Y_lm(r/|r|)

 augmentation functions for atom   1 (Rmt= 2.500)

 regular augmentation functions at r = Rmt
  L    E(L)      u(r,E)     u'(r,E)   dE u(r,E)  dE u'(r,E)  <u|dE u>  |dE u|^2
  0  -0.114 -2.4819E-01  3.9067E-01  2.0203E-01  3.2667E-01
  1   0.060  4.5695E-01 -1.0009E-01 -1.1832E-01 -3.2425E-01
  2  -1.369  1.1091E-01 -1.3269E-01 -6.0255E-01 -7.2205E-01
  3   0.060 -6.2857E-01 -4.8437E-01  8.9763E-02  3.2372E-01
  4   0.060  7.7450E-01  1.0325E+00 -4.7847E-02 -2.7037E-01
  5   0.060  8.7039E-01  1.5672E+00 -3.3984E-02 -2.4501E-01
  6   0.060  9.4942E-01  2.1261E+00 -2.6534E-02 -2.2793E-01
  7   0.060  1.0196E+00  2.7174E+00 -2.1678E-02 -2.1469E-01
  8   0.060  1.0838E+00  3.3421E+00 -1.8226E-02 -2.0381E-01
LO COEFFICIENT: l,A,B,C   0          0.95366     1.17153     0.00000     0.00000
LO COEFFICIENT: l,A,B,C   0          0.98686     0.00000    -1.96234     0.00000
LO COEFFICIENT: l,A,B,C   1          0.87172     3.36661     0.00000     0.00000
LO COEFFICIENT: l,A,B,C   2          0.98879     0.18200     0.00000     0.00000
LO COEFFICIENT: l,A,B,C   2          0.91169     0.00000     0.18959     0.00000

 augmentation functions for atom   2 (Rmt= 2.410)

 regular augmentation functions at r = Rmt
  L    E(L)      u(r,E)     u'(r,E)   dE u(r,E)  dE u'(r,E)  <u|dE u>  |dE u|^2
  0  -0.250  2.4410E-01 -3.3166E-01 -2.5615E-01 -3.5731E-01
  1   0.060 -3.7493E-01  1.8183E-01  1.9477E-01  3.6478E-01
  2   0.060  5.6590E-01  2.1265E-01 -1.2039E-01 -3.4949E-01
  3   0.060  7.3980E-01  7.3626E-01 -5.9387E-02 -2.9183E-01
  4   0.060  8.4767E-01  1.2552E+00 -4.1062E-02 -2.6391E-01
  5   0.060  9.3625E-01  1.8108E+00 -3.1261E-02 -2.4435E-01
  6   0.060  1.0144E+00  2.4077E+00 -2.5037E-02 -2.2915E-01
  7   0.060  1.0855E+00  3.0456E+00 -2.0718E-02 -2.1672E-01
  8   0.060  1.1515E+00  3.7231E+00 -1.7550E-02 -2.0624E-01
LO COEFFICIENT: l,A,B,C   0          0.95370     0.90887     0.00000     0.00000
LO COEFFICIENT: l,A,B,C   0          0.22602     0.00000    -1.21665     0.00000
LO COEFFICIENT: l,A,B,C   1          0.89984     1.73219     0.00000     0.00000

 augmentation functions for atom   3 (Rmt= 2.500)

 regular augmentation functions at r = Rmt
  L    E(L)      u(r,E)     u'(r,E)   dE u(r,E)  dE u'(r,E)  <u|dE u>  |dE u|^2
  0   0.060 -5.3409E-01 -1.3508E-01  6.2046E-02  3.1527E-01
  1  -1.458 -1.3044E-01  1.4704E-01  5.4319E-01  6.1433E-01
  2   0.060  3.7983E-01  1.5807E-02 -2.7463E-01 -4.3270E-01
  3   0.060  6.8764E-01  6.4341E-01 -6.5240E-02 -2.9372E-01
  4   0.060  7.9756E-01  1.1321E+00 -4.2981E-02 -2.6162E-01
  5   0.060  8.8376E-01  1.6452E+00 -3.2274E-02 -2.4112E-01
  6   0.060  9.5873E-01  2.1930E+00 -2.5699E-02 -2.2566E-01
  7   0.060  1.0266E+00  2.7771E+00 -2.1204E-02 -2.1320E-01
  8   0.060  1.0894E+00  3.3966E+00 -1.7932E-02 -2.0276E-01
LO COEFFICIENT: l,A,B,C   0          0.57352     4.93681     0.00000     0.00000
LO COEFFICIENT: l,A,B,C   0          0.15983     0.00000     0.96212     0.00000
LO COEFFICIENT: l,A,B,C   1          0.98372     0.23623     0.00000     0.00000
LO COEFFICIENT: l,A,B,C   1          0.89313     0.00000     0.23254     0.00000

 augmentation functions for atom   4 (Rmt= 2.500)

 regular augmentation functions at r = Rmt
  L    E(L)      u(r,E)     u'(r,E)   dE u(r,E)  dE u'(r,E)  <u|dE u>  |dE u|^2
  0   0.060 -5.3446E-01 -1.3672E-01  6.1291E-02  3.1505E-01
  1  -1.442 -1.3121E-01  1.4744E-01  5.4169E-01  6.1077E-01
  2   0.060  3.8383E-01  1.9838E-02 -2.7094E-01 -4.3087E-01
  3   0.060  6.8808E-01  6.4371E-01 -6.5080E-02 -2.9342E-01
  4   0.060  7.9774E-01  1.1318E+00 -4.2929E-02 -2.6147E-01
  5   0.060  8.8383E-01  1.6445E+00 -3.2251E-02 -2.4103E-01
  6   0.060  9.5875E-01  2.1921E+00 -2.5688E-02 -2.2561E-01
  7   0.060  1.0266E+00  2.7760E+00 -2.1198E-02 -2.1316E-01
  8   0.060  1.0893E+00  3.3955E+00 -1.7929E-02 -2.0274E-01
LO COEFFICIENT: l,A,B,C   0          0.56604     4.93588     0.00000     0.00000
LO COEFFICIENT: l,A,B,C   0          0.16056     0.00000     0.96161     0.00000
LO COEFFICIENT: l,A,B,C   1          0.98351     0.23823     0.00000     0.00000
LO COEFFICIENT: l,A,B,C   1          0.89131     0.00000     0.23403     0.00000

 WAVE FUNCTION OPTIONS
 ---------------------
 evaluation of the LARGE relativistic component of the wave functions
 data provided    :  NO (PSI)  [in ANG units]

 ==================
 WAVE FUNCTION DATA
 ==================
 order: (((psi(ix,iy,iz),ix=1,nx),iy=1,ny),iz=1,nz)

 k-point   1 :          1 = (  0.0000,  0.0000,  0.0000)
 -------------------------------------------------------
 k-point   2 :          2 = (  0.0000,  0.0000,  0.2500)
 -------------------------------------------------------
 k-point   3 :          3 = (  0.0000,  0.0000,  0.5000)
 -------------------------------------------------------
 k-point   4 :          4 = (  0.0000,  0.0000,  0.7500)
 -------------------------------------------------------
 k-point   5 :          5 = (  0.0000,  0.2500,  0.0000)
 -------------------------------------------------------
 k-point   6 :          6 = (  0.0000,  0.2500,  0.2500)
 -------------------------------------------------------
 k-point   7 :          7 = (  0.0000,  0.2500,  0.5000)
 -------------------------------------------------------
 k-point   8 :          8 = (  0.0000,  0.2500,  0.7500)
 -------------------------------------------------------
 k-point   9 :          9 = (  0.0000,  0.5000,  0.0000)
 -------------------------------------------------------
 k-point  10 :         10 = (  0.0000,  0.5000,  0.2500)
 -------------------------------------------------------
 k-point  11 :         11 = (  0.0000,  0.5000,  0.5000)
 -------------------------------------------------------
 k-point  12 :         12 = (  0.0000,  0.5000,  0.7500)
 -------------------------------------------------------
 k-point  13 :         13 = (  0.0000,  0.7500,  0.0000)
 -------------------------------------------------------
 k-point  14 :         14 = (  0.0000,  0.7500,  0.2500)
 -------------------------------------------------------
 k-point  15 :         15 = (  0.0000,  0.7500,  0.5000)
 -------------------------------------------------------
 k-point  16 :         16 = (  0.0000,  0.7500,  0.7500)
 -------------------------------------------------------
 k-point  17 :         17 = (  0.2500,  0.0000,  0.0000)
 -------------------------------------------------------
 k-point  18 :         18 = (  0.2500,  0.0000,  0.2500)
 -------------------------------------------------------
 k-point  19 :         19 = (  0.2500,  0.0000,  0.5000)
 -------------------------------------------------------
 k-point  20 :         20 = (  0.2500,  0.0000,  0.7500)
 -------------------------------------------------------
 k-point  21 :         21 = (  0.2500,  0.2500,  0.0000)
 -------------------------------------------------------
 k-point  22 :         22 = (  0.2500,  0.2500,  0.2500)
 -------------------------------------------------------
 k-point  23 :         23 = (  0.2500,  0.2500,  0.5000)
 -------------------------------------------------------
 k-point  24 :         24 = (  0.2500,  0.2500,  0.7500)
 -------------------------------------------------------
 k-point  25 :         25 = (  0.2500,  0.5000,  0.0000)
 -------------------------------------------------------
 k-point  26 :         26 = (  0.2500,  0.5000,  0.2500)
 -------------------------------------------------------
 k-point  27 :         27 = (  0.2500,  0.5000,  0.5000)
 -------------------------------------------------------
 k-point  28 :         28 = (  0.2500,  0.5000,  0.7500)
 -------------------------------------------------------
 k-point  29 :         29 = (  0.2500,  0.7500,  0.0000)
 -------------------------------------------------------
 k-point  30 :         30 = (  0.2500,  0.7500,  0.2500)
 -------------------------------------------------------
 k-point  31 :         31 = (  0.2500,  0.7500,  0.5000)
 -------------------------------------------------------
 k-point  32 :         32 = (  0.2500,  0.7500,  0.7500)
 -------------------------------------------------------
 k-point  33 :         33 = (  0.5000,  0.0000,  0.0000)
 -------------------------------------------------------
 k-point  34 :         34 = (  0.5000,  0.0000,  0.2500)
 -------------------------------------------------------
 k-point  35 :         35 = (  0.5000,  0.0000,  0.5000)
 -------------------------------------------------------
 k-point  36 :         36 = (  0.5000,  0.0000,  0.7500)
 -------------------------------------------------------
 k-point  37 :         37 = (  0.5000,  0.2500,  0.0000)
 -------------------------------------------------------
 k-point  38 :         38 = (  0.5000,  0.2500,  0.2500)
 -------------------------------------------------------
 k-point  39 :         39 = (  0.5000,  0.2500,  0.5000)
 -------------------------------------------------------
 k-point  40 :         40 = (  0.5000,  0.2500,  0.7500)
 -------------------------------------------------------
 k-point  41 :         41 = (  0.5000,  0.5000,  0.0000)
 -------------------------------------------------------
 k-point  42 :         42 = (  0.5000,  0.5000,  0.2500)
 -------------------------------------------------------
 k-point  43 :         43 = (  0.5000,  0.5000,  0.5000)
 -------------------------------------------------------
 k-point  44 :         44 = (  0.5000,  0.5000,  0.7500)
 -------------------------------------------------------
 k-point  45 :         45 = (  0.5000,  0.7500,  0.0000)
 -------------------------------------------------------
 k-point  46 :         46 = (  0.5000,  0.7500,  0.2500)
 -------------------------------------------------------
 k-point  47 :         47 = (  0.5000,  0.7500,  0.5000)
 -------------------------------------------------------
 k-point  48 :         48 = (  0.5000,  0.7500,  0.7500)
 -------------------------------------------------------
 k-point  49 :         49 = (  0.7500,  0.0000,  0.0000)
 -------------------------------------------------------
 k-point  50 :         50 = (  0.7500,  0.0000,  0.2500)
 -------------------------------------------------------
 k-point  51 :         51 = (  0.7500,  0.0000,  0.5000)
 -------------------------------------------------------
 k-point  52 :         52 = (  0.7500,  0.0000,  0.7500)
 -------------------------------------------------------
 k-point  53 :         53 = (  0.7500,  0.2500,  0.0000)
 -------------------------------------------------------
 k-point  54 :         54 = (  0.7500,  0.2500,  0.2500)
 -------------------------------------------------------
 k-point  55 :         55 = (  0.7500,  0.2500,  0.5000)
 -------------------------------------------------------
 k-point  56 :         56 = (  0.7500,  0.2500,  0.7500)
 -------------------------------------------------------
 k-point  57 :         57 = (  0.7500,  0.5000,  0.0000)
 -------------------------------------------------------
 k-point  58 :         58 = (  0.7500,  0.5000,  0.2500)
 -------------------------------------------------------
 k-point  59 :         59 = (  0.7500,  0.5000,  0.5000)
 -------------------------------------------------------
 k-point  60 :         60 = (  0.7500,  0.5000,  0.7500)
 -------------------------------------------------------
 k-point  61 :         61 = (  0.7500,  0.7500,  0.0000)
 -------------------------------------------------------
 k-point  62 :         62 = (  0.7500,  0.7500,  0.2500)
 -------------------------------------------------------
 k-point  63 :         63 = (  0.7500,  0.7500,  0.5000)
 -------------------------------------------------------
 k-point  64 :         64 = (  0.7500,  0.7500,  0.7500)
 -------------------------------------------------------
